MODEL 1
REMARK VINA RESULT:    -6.684      0.000      0.000
REMARK INTER + INTRA:         -10.976
REMARK INTER:                  -9.809
REMARK INTRA:                  -1.167
REMARK UNBOUND:                -1.167
REMARK SMILES Cn1nc(C(F)(F)F)cc1C(=O)Nc1ccc(S(=O)(=O)N2CCCC[C@H]2CCN2CCOCC2)cc1
REMARK SMILES IDX 16 1 15 2 17 3 35 4 36 5 14 6 13 7 11 8 12 9 10 11 2 12 3 13
REMARK SMILES IDX 4 14 9 15 1 16 5 17 6 18 7 19 8 20 18 21 19 22 20 23 21 24
REMARK SMILES IDX 26 25 22 26 25 27 23 28 24 29 27 30 28 31 29 32 30 33 34 34
REMARK SMILES IDX 31 35 33 36 32 37
REMARK H PARENT 13 10
ROOT
ATOM      1  C   UNL     1     135.763 136.927 150.795  1.00  0.00     0.024 A 
ATOM      2  C   UNL     1     136.435 137.583 149.595  1.00  0.00     0.027 A 
ATOM      3  C   UNL     1     134.359 136.350 150.651  1.00  0.00     0.082 A 
ATOM      4  C   UNL     1     133.620 136.425 149.323  1.00  0.00     0.024 A 
ATOM      5  C   UNL     1     134.292 137.080 148.125  1.00  0.00     0.027 A 
ATOM      6  C   UNL     1     135.703 137.640 148.258  1.00  0.00     0.041 A 
ENDROOT
BRANCH   6   7
ATOM      7  N   UNL     1     136.318 138.292 147.125  1.00  0.00    -0.321 N 
ATOM      8  C   UNL     1     136.885 137.628 145.970  1.00  0.00     0.273 C 
ATOM      9  O   UNL     1     136.907 136.451 145.860  1.00  0.00    -0.267 OA
ATOM     10  H   UNL     1     136.355 139.275 147.140  1.00  0.00     0.170 HD
BRANCH   8  11
ATOM     11  C   UNL     1     137.417 138.567 144.894  1.00  0.00     0.126 A 
ATOM     12  N   UNL     1     138.611 138.616 144.315  1.00  0.00    -0.262 N 
ATOM     13  N   UNL     1     138.583 139.647 143.384  1.00  0.00    -0.168 NA
ATOM     14  C   UNL     1     137.376 140.199 143.414  1.00  0.00     0.167 A 
ATOM     15  C   UNL     1     136.641 139.537 144.341  1.00  0.00     0.069 A 
ATOM     16  C   UNL     1     139.752 137.766 144.591  1.00  0.00     0.174 C 
BRANCH  14  17
ATOM     17  C   UNL     1     136.867 141.364 142.573  1.00  0.00     0.435 C 
ATOM     18  F   UNL     1     137.821 141.732 141.672  1.00  0.00    -0.164 F 
ATOM     19  F   UNL     1     136.567 142.421 143.379  1.00  0.00    -0.164 F 
ATOM     20  F   UNL     1     135.746 140.967 141.907  1.00  0.00    -0.164 F 
ENDBRANCH  14  17
ENDBRANCH   8  11
ENDBRANCH   6   7
BRANCH   3  21
ATOM     21  S   UNL     1     133.540 135.579 152.066  1.00  0.00     0.243 S 
ATOM     22  O   UNL     1     134.497 135.093 153.055  1.00  0.00    -0.207 OA
ATOM     23  O   UNL     1     132.874 134.344 151.658  1.00  0.00    -0.207 OA
BRANCH  21  24
ATOM     24  N   UNL     1     132.447 136.719 152.727  1.00  0.00    -0.195 NA
ATOM     25  C   UNL     1     131.832 136.478 154.100  1.00  0.00     0.074 C 
ATOM     26  C   UNL     1     132.712 138.215 152.588  1.00  0.00     0.103 C 
ATOM     27  C   UNL     1     132.610 137.135 155.228  1.00  0.00     0.020 C 
ATOM     28  C   UNL     1     133.483 138.819 153.750  1.00  0.00     0.017 C 
ATOM     29  C   UNL     1     132.845 138.552 155.019  1.00  0.00     0.003 C 
BRANCH  25  30
ATOM     30  C   UNL     1     130.412 136.994 154.108  1.00  0.00     0.036 C 
BRANCH  30  31
ATOM     31  C   UNL     1     129.460 135.802 154.146  1.00  0.00     0.086 C 
BRANCH  31  32
ATOM     32  N   UNL     1     128.265 136.209 154.214  1.00  0.00    -0.299 NA
ATOM     33  C   UNL     1     127.548 135.402 155.075  1.00  0.00     0.113 C 
ATOM     34  C   UNL     1     128.228 137.536 154.597  1.00  0.00     0.113 C 
ATOM     35  C   UNL     1     126.107 135.886 155.220  1.00  0.00     0.175 C 
ATOM     36  C   UNL     1     126.794 138.036 154.755  1.00  0.00     0.175 C 
ATOM     37  O   UNL     1     126.047 137.219 155.584  1.00  0.00    -0.379 OA
ENDBRANCH  31  32
ENDBRANCH  30  31
ENDBRANCH  25  30
ENDBRANCH  21  24
ENDBRANCH   3  21
TORSDOF 8
ENDMDL
