MODEL 1
REMARK VINA RESULT:    -6.484      0.000      0.000
REMARK INTER + INTRA:         -10.724
REMARK INTER:                  -9.517
REMARK INTRA:                  -1.207
REMARK UNBOUND:                -1.207
REMARK SMILES Cn1nc(C(F)(F)F)cc1C(=O)Nc1ccc(S(=O)(=O)N2CCCC[C@H]2CCN2CCOCC2)cc1
REMARK SMILES IDX 16 1 15 2 17 3 35 4 36 5 14 6 13 7 11 8 12 9 10 11 2 12 3 13
REMARK SMILES IDX 4 14 9 15 1 16 5 17 6 18 7 19 8 20 18 21 19 22 20 23 21 24
REMARK SMILES IDX 26 25 22 26 25 27 23 28 24 29 27 30 28 31 29 32 30 33 34 34
REMARK SMILES IDX 31 35 33 36 32 37
REMARK H PARENT 13 10
ROOT
ATOM      1  C   UNL     1     135.565 136.818 151.025  1.00  0.00     0.024 A 
ATOM      2  C   UNL     1     136.321 137.446 149.860  1.00  0.00     0.027 A 
ATOM      3  C   UNL     1     134.114 136.388 150.837  1.00  0.00     0.082 A 
ATOM      4  C   UNL     1     133.412 136.582 149.502  1.00  0.00     0.024 A 
ATOM      5  C   UNL     1     134.168 137.208 148.339  1.00  0.00     0.027 A 
ATOM      6  C   UNL     1     135.623 137.622 148.515  1.00  0.00     0.041 A 
ENDROOT
BRANCH   6   7
ATOM      7  N   UNL     1     136.321 138.249 147.417  1.00  0.00    -0.321 N 
ATOM      8  C   UNL     1     136.778 137.586 146.213  1.00  0.00     0.273 C 
ATOM      9  O   UNL     1     136.627 136.428 146.029  1.00  0.00    -0.267 OA
ATOM     10  H   UNL     1     136.502 139.213 147.493  1.00  0.00     0.170 HD
BRANCH   8  11
ATOM     11  C   UNL     1     137.435 138.505 145.191  1.00  0.00     0.126 A 
ATOM     12  N   UNL     1     136.891 139.368 144.341  1.00  0.00    -0.262 N 
ATOM     13  N   UNL     1     137.924 139.972 143.637  1.00  0.00    -0.168 NA
ATOM     14  C   UNL     1     139.072 139.469 144.074  1.00  0.00     0.167 A 
ATOM     15  C   UNL     1     138.786 138.562 145.040  1.00  0.00     0.069 A 
ATOM     16  C   UNL     1     135.479 139.642 144.158  1.00  0.00     0.174 C 
BRANCH  14  17
ATOM     17  C   UNL     1     140.479 139.821 143.604  1.00  0.00     0.435 C 
ATOM     18  F   UNL     1     141.108 140.567 144.556  1.00  0.00    -0.164 F 
ATOM     19  F   UNL     1     140.416 140.524 142.439  1.00  0.00    -0.164 F 
ATOM     20  F   UNL     1     141.175 138.666 143.401  1.00  0.00    -0.164 F 
ENDBRANCH  14  17
ENDBRANCH   8  11
ENDBRANCH   6   7
BRANCH   3  21
ATOM     21  S   UNL     1     133.196 135.653 152.211  1.00  0.00     0.243 S 
ATOM     22  O   UNL     1     134.083 135.071 153.213  1.00  0.00    -0.207 OA
ATOM     23  O   UNL     1     132.448 134.483 151.754  1.00  0.00    -0.207 OA
BRANCH  21  24
ATOM     24  N   UNL     1     132.177 136.860 152.869  1.00  0.00    -0.195 NA
ATOM     25  C   UNL     1     131.596 136.687 154.267  1.00  0.00     0.074 C 
ATOM     26  C   UNL     1     132.504 138.337 152.676  1.00  0.00     0.103 C 
ATOM     27  C   UNL     1     132.438 137.341 155.350  1.00  0.00     0.020 C 
ATOM     28  C   UNL     1     133.338 138.939 153.795  1.00  0.00     0.017 C 
ATOM     29  C   UNL     1     132.729 138.739 155.090  1.00  0.00     0.003 C 
BRANCH  25  30
ATOM     30  C   UNL     1     130.202 137.267 154.302  1.00  0.00     0.036 C 
BRANCH  30  31
ATOM     31  C   UNL     1     129.195 136.123 154.219  1.00  0.00     0.086 C 
BRANCH  31  32
ATOM     32  N   UNL     1     128.019 136.584 154.251  1.00  0.00    -0.299 NA
ATOM     33  C   UNL     1     127.210 135.743 154.989  1.00  0.00     0.113 C 
ATOM     34  C   UNL     1     128.017 137.872 154.750  1.00  0.00     0.113 C 
ATOM     35  C   UNL     1     125.787 136.285 155.089  1.00  0.00     0.175 C 
ATOM     36  C   UNL     1     126.600 138.430 154.865  1.00  0.00     0.175 C 
ATOM     37  O   UNL     1     125.763 137.582 155.569  1.00  0.00    -0.379 OA
ENDBRANCH  31  32
ENDBRANCH  30  31
ENDBRANCH  25  30
ENDBRANCH  21  24
ENDBRANCH   3  21
TORSDOF 8
ENDMDL
