MODEL 1
REMARK VINA RESULT:    -6.532      0.000      0.000
REMARK INTER + INTRA:         -10.817
REMARK INTER:                  -9.587
REMARK INTRA:                  -1.230
REMARK UNBOUND:                -1.230
REMARK SMILES Cn1nc(C(F)(F)F)cc1C(=O)Nc1ccc(S(=O)(=O)N2CCCC[C@H]2CCN2CCOCC2)cc1
REMARK SMILES IDX 16 1 15 2 17 3 35 4 36 5 14 6 13 7 11 8 12 9 10 11 2 12 3 13
REMARK SMILES IDX 4 14 9 15 1 16 5 17 6 18 7 19 8 20 18 21 19 22 20 23 21 24
REMARK SMILES IDX 26 25 22 26 25 27 23 28 24 29 27 30 28 31 29 32 30 33 34 34
REMARK SMILES IDX 31 35 33 36 32 37
REMARK H PARENT 13 10
ROOT
ATOM      1  C   UNL     1     135.751 136.939 150.843  1.00  0.00     0.024 A 
ATOM      2  C   UNL     1     136.400 137.596 149.631  1.00  0.00     0.027 A 
ATOM      3  C   UNL     1     134.335 136.383 150.731  1.00  0.00     0.082 A 
ATOM      4  C   UNL     1     133.563 136.481 149.425  1.00  0.00     0.024 A 
ATOM      5  C   UNL     1     134.213 137.136 148.214  1.00  0.00     0.027 A 
ATOM      6  C   UNL     1     135.634 137.675 148.315  1.00  0.00     0.041 A 
ENDROOT
BRANCH   6   7
ATOM      7  N   UNL     1     136.229 138.328 147.172  1.00  0.00    -0.321 N 
ATOM      8  C   UNL     1     136.786 137.666 146.011  1.00  0.00     0.273 C 
ATOM      9  O   UNL     1     136.816 136.488 145.905  1.00  0.00    -0.267 OA
ATOM     10  H   UNL     1     136.257 139.312 147.182  1.00  0.00     0.170 HD
BRANCH   8  11
ATOM     11  C   UNL     1     137.295 138.605 144.925  1.00  0.00     0.126 A 
ATOM     12  N   UNL     1     138.493 138.690 144.359  1.00  0.00    -0.262 N 
ATOM     13  N   UNL     1     138.438 139.702 143.410  1.00  0.00    -0.168 NA
ATOM     14  C   UNL     1     137.211 140.208 143.416  1.00  0.00     0.167 A 
ATOM     15  C   UNL     1     136.490 139.536 144.346  1.00  0.00     0.069 A 
ATOM     16  C   UNL     1     139.662 137.888 144.663  1.00  0.00     0.174 C 
BRANCH  14  17
ATOM     17  C   UNL     1     136.669 141.339 142.549  1.00  0.00     0.435 C 
ATOM     18  F   UNL     1     135.564 140.912 141.875  1.00  0.00    -0.164 F 
ATOM     19  F   UNL     1     137.621 141.738 141.659  1.00  0.00    -0.164 F 
ATOM     20  F   UNL     1     136.331 142.386 143.353  1.00  0.00    -0.164 F 
ENDBRANCH  14  17
ENDBRANCH   8  11
ENDBRANCH   6   7
BRANCH   3  21
ATOM     21  S   UNL     1     133.543 135.612 152.162  1.00  0.00     0.243 S 
ATOM     22  O   UNL     1     134.519 135.089 153.112  1.00  0.00    -0.207 OA
ATOM     23  O   UNL     1     132.835 134.399 151.757  1.00  0.00    -0.207 OA
BRANCH  21  24
ATOM     24  N   UNL     1     132.500 136.768 152.873  1.00  0.00    -0.195 NA
ATOM     25  C   UNL     1     132.018 136.579 154.305  1.00  0.00     0.074 C 
ATOM     26  C   UNL     1     132.729 138.259 152.646  1.00  0.00     0.103 C 
ATOM     27  C   UNL     1     132.887 137.293 155.328  1.00  0.00     0.020 C 
ATOM     28  C   UNL     1     133.595 138.920 153.706  1.00  0.00     0.017 C 
ATOM     29  C   UNL     1     133.081 138.702 155.038  1.00  0.00     0.003 C 
BRANCH  25  30
ATOM     30  C   UNL     1     130.597 137.080 154.424  1.00  0.00     0.036 C 
BRANCH  30  31
ATOM     31  C   UNL     1     129.652 135.985 153.937  1.00  0.00     0.086 C 
BRANCH  31  32
ATOM     32  N   UNL     1     128.453 136.345 154.113  1.00  0.00    -0.299 NA
ATOM     33  C   UNL     1     127.830 135.473 154.984  1.00  0.00     0.113 C 
ATOM     34  C   UNL     1     128.401 137.649 154.563  1.00  0.00     0.113 C 
ATOM     35  C   UNL     1     126.389 135.896 155.258  1.00  0.00     0.175 C 
ATOM     36  C   UNL     1     126.966 138.089 154.850  1.00  0.00     0.175 C 
ATOM     37  O   UNL     1     126.311 137.207 155.691  1.00  0.00    -0.379 OA
ENDBRANCH  31  32
ENDBRANCH  30  31
ENDBRANCH  25  30
ENDBRANCH  21  24
ENDBRANCH   3  21
TORSDOF 8
ENDMDL
