MODEL 1
REMARK VINA RESULT:    -6.698      0.000      0.000
REMARK INTER + INTRA:         -11.015
REMARK INTER:                  -9.831
REMARK INTRA:                  -1.185
REMARK UNBOUND:                -1.185
REMARK SMILES Cn1nc(C(F)(F)F)cc1C(=O)Nc1ccc(S(=O)(=O)N2CCCC[C@H]2CCN2CCOCC2)cc1
REMARK SMILES IDX 16 1 15 2 17 3 35 4 36 5 14 6 13 7 11 8 12 9 10 11 2 12 3 13
REMARK SMILES IDX 4 14 9 15 1 16 5 17 6 18 7 19 8 20 18 21 19 22 20 23 21 24
REMARK SMILES IDX 26 25 22 26 25 27 23 28 24 29 27 30 28 31 29 32 30 33 34 34
REMARK SMILES IDX 31 35 33 36 32 37
REMARK H PARENT 13 10
ROOT
ATOM      1  C   UNL     1     135.751 136.899 150.835  1.00  0.00     0.024 A 
ATOM      2  C   UNL     1     136.432 137.553 149.638  1.00  0.00     0.027 A 
ATOM      3  C   UNL     1     134.332 136.360 150.692  1.00  0.00     0.082 A 
ATOM      4  C   UNL     1     133.587 136.471 149.371  1.00  0.00     0.024 A 
ATOM      5  C   UNL     1     134.268 137.124 148.176  1.00  0.00     0.027 A 
ATOM      6  C   UNL     1     135.693 137.646 148.308  1.00  0.00     0.041 A 
ENDROOT
BRANCH   6   7
ATOM      7  N   UNL     1     136.317 138.297 147.179  1.00  0.00    -0.321 N 
ATOM      8  C   UNL     1     136.798 137.641 145.981  1.00  0.00     0.273 C 
ATOM      9  O   UNL     1     136.730 136.470 145.827  1.00  0.00    -0.267 OA
ATOM     10  H   UNL     1     136.426 139.274 147.229  1.00  0.00     0.170 HD
BRANCH   8  11
ATOM     11  C   UNL     1     137.361 138.581 144.923  1.00  0.00     0.126 A 
ATOM     12  N   UNL     1     138.575 138.637 144.387  1.00  0.00    -0.262 N 
ATOM     13  N   UNL     1     138.573 139.666 143.453  1.00  0.00    -0.168 NA
ATOM     14  C   UNL     1     137.363 140.210 143.439  1.00  0.00     0.167 A 
ATOM     15  C   UNL     1     136.599 139.546 144.341  1.00  0.00     0.069 A 
ATOM     16  C   UNL     1     139.711 137.795 144.704  1.00  0.00     0.174 C 
BRANCH  14  17
ATOM     17  C   UNL     1     136.877 141.371 142.578  1.00  0.00     0.435 C 
ATOM     18  F   UNL     1     137.922 141.892 141.876  1.00  0.00    -0.164 F 
ATOM     19  F   UNL     1     136.330 142.336 143.369  1.00  0.00    -0.164 F 
ATOM     20  F   UNL     1     135.935 140.907 141.709  1.00  0.00    -0.164 F 
ENDBRANCH  14  17
ENDBRANCH   8  11
ENDBRANCH   6   7
BRANCH   3  21
ATOM     21  S   UNL     1     133.502 135.592 152.104  1.00  0.00     0.243 S 
ATOM     22  O   UNL     1     134.453 135.100 153.096  1.00  0.00    -0.207 OA
ATOM     23  O   UNL     1     132.832 134.360 151.691  1.00  0.00    -0.207 OA
BRANCH  21  24
ATOM     24  N   UNL     1     132.412 136.736 152.760  1.00  0.00    -0.195 NA
ATOM     25  C   UNL     1     131.862 136.544 154.168  1.00  0.00     0.074 C 
ATOM     26  C   UNL     1     132.636 138.230 152.543  1.00  0.00     0.103 C 
ATOM     27  C   UNL     1     132.672 137.269 155.231  1.00  0.00     0.020 C 
ATOM     28  C   UNL     1     133.441 138.902 153.643  1.00  0.00     0.017 C 
ATOM     29  C   UNL     1     132.864 138.680 154.949  1.00  0.00     0.003 C 
BRANCH  25  30
ATOM     30  C   UNL     1     130.432 137.029 154.215  1.00  0.00     0.036 C 
BRANCH  30  31
ATOM     31  C   UNL     1     129.504 135.826 154.070  1.00  0.00     0.086 C 
BRANCH  31  32
ATOM     32  N   UNL     1     128.301 136.197 154.176  1.00  0.00    -0.299 NA
ATOM     33  C   UNL     1     127.633 135.366 155.053  1.00  0.00     0.113 C 
ATOM     34  C   UNL     1     128.236 137.520 154.567  1.00  0.00     0.113 C 
ATOM     35  C   UNL     1     126.184 135.806 155.243  1.00  0.00     0.175 C 
ATOM     36  C   UNL     1     126.793 137.978 154.770  1.00  0.00     0.175 C 
ATOM     37  O   UNL     1     126.095 137.135 155.616  1.00  0.00    -0.379 OA
ENDBRANCH  31  32
ENDBRANCH  30  31
ENDBRANCH  25  30
ENDBRANCH  21  24
ENDBRANCH   3  21
TORSDOF 8
ENDMDL
