MODEL 1
REMARK VINA RESULT:    -7.177      0.000      0.000
REMARK INTER + INTRA:         -12.275
REMARK INTER:                  -9.904
REMARK INTRA:                  -2.371
REMARK UNBOUND:                -2.371
REMARK SMILES O=C(O)c1ccc(N2C(=O)/C(=C/c3ccc(-c4ccc([N+](=O)[O-])cc4)o3)C=C2c2ccccc2)cc1
REMARK SMILES IDX 8 1 9 2 10 3 11 4 12 5 27 6 28 7 7 8 4 9 5 10 36 11 6 12
REMARK SMILES IDX 35 13 2 14 1 15 3 16 29 18 30 19 34 20 31 21 33 22 32 23
REMARK SMILES IDX 13 24 14 25 26 26 15 27 16 28 17 29 18 30 25 31 19 32 24 33
REMARK SMILES IDX 20 34 21 35 22 36 23 37
REMARK H PARENT 3 17
ROOT
ATOM      1  N   UNL     1     134.241 137.135 149.010  1.00  0.00    -0.276 N 
ATOM      2  C   UNL     1     134.299 136.336 150.182  1.00  0.00     0.263 C 
ATOM      3  O   UNL     1     134.914 135.314 150.429  1.00  0.00    -0.268 OA
ATOM      4  C   UNL     1     133.415 137.054 151.160  1.00  0.00     0.046 C 
ATOM      5  C   UNL     1     133.245 136.582 152.402  1.00  0.00     0.061 C 
ATOM      6  C   UNL     1     132.907 138.219 150.490  1.00  0.00     0.041 C 
ATOM      7  C   UNL     1     133.407 138.232 149.244  1.00  0.00     0.057 C 
ENDROOT
BRANCH   1   8
ATOM      8  C   UNL     1     135.010 136.820 147.845  1.00  0.00     0.049 A 
ATOM      9  C   UNL     1     136.552 136.200 145.544  1.00  0.00     0.060 A 
ATOM     10  C   UNL     1     137.124 136.894 146.612  1.00  0.00     0.018 A 
ATOM     11  C   UNL     1     135.210 135.824 145.618  1.00  0.00     0.018 A 
ATOM     12  C   UNL     1     136.357 137.202 147.745  1.00  0.00     0.027 A 
ATOM     13  C   UNL     1     134.451 136.135 146.755  1.00  0.00     0.027 A 
BRANCH   9  14
ATOM     14  C   UNL     1     137.397 135.894 144.364  1.00  0.00     0.335 C 
ATOM     15  O   UNL     1     137.363 136.471 143.293  1.00  0.00    -0.246 OA
BRANCH  14  16
ATOM     16  O   UNL     1     138.251 134.878 144.583  1.00  0.00    -0.478 OA
ATOM     17  H   UNL     1     137.814 134.357 145.288  1.00  0.00     0.297 HD
ENDBRANCH  14  16
ENDBRANCH   9  14
ENDBRANCH   1   8
BRANCH   7  18
ATOM     18  C   UNL     1     132.974 139.228 148.263  1.00  0.00    -0.001 A 
ATOM     19  C   UNL     1     133.644 140.455 148.157  1.00  0.00     0.010 A 
ATOM     20  C   UNL     1     131.907 138.957 147.393  1.00  0.00     0.010 A 
ATOM     21  C   UNL     1     133.243 141.400 147.210  1.00  0.00     0.001 A 
ATOM     22  C   UNL     1     131.508 139.904 146.447  1.00  0.00     0.001 A 
ATOM     23  C   UNL     1     132.176 141.124 146.357  1.00  0.00     0.000 A 
ENDBRANCH   7  18
BRANCH   5  24
ATOM     24  C   UNL     1     132.423 137.175 153.398  1.00  0.00     0.128 A 
ATOM     25  C   UNL     1     132.717 138.041 154.443  1.00  0.00     0.051 A 
ATOM     26  O   UNL     1     131.060 136.975 153.412  1.00  0.00    -0.457 OA
ATOM     27  C   UNL     1     131.509 138.341 155.118  1.00  0.00     0.051 A 
ATOM     28  C   UNL     1     130.511 137.664 154.452  1.00  0.00     0.134 A 
BRANCH  28  29
ATOM     29  C   UNL     1     129.063 137.544 154.616  1.00  0.00     0.018 A 
ATOM     30  C   UNL     1     128.437 136.286 154.639  1.00  0.00     0.019 A 
ATOM     31  C   UNL     1     128.264 138.690 154.756  1.00  0.00     0.019 A 
ATOM     32  C   UNL     1     127.050 136.170 154.797  1.00  0.00     0.086 A 
ATOM     33  C   UNL     1     126.876 138.588 154.914  1.00  0.00     0.086 A 
ATOM     34  C   UNL     1     126.275 137.325 154.934  1.00  0.00     0.269 A 
BRANCH  34  35
ATOM     35  N   UNL     1     124.819 137.212 155.100  1.00  0.00     0.062 N 
ATOM     36  O   UNL     1     124.298 137.818 156.047  1.00  0.00    -0.258 OA
ATOM     37  O   UNL     1     124.199 136.519 154.280  1.00  0.00    -0.258 OA
ENDBRANCH  34  35
ENDBRANCH  28  29
ENDBRANCH   5  24
TORSDOF 7
ENDMDL
