MODEL 1
REMARK VINA RESULT:    -6.503      0.000      0.000
REMARK INTER + INTRA:         -13.845
REMARK INTER:                 -11.064
REMARK INTRA:                  -2.781
REMARK UNBOUND:                -2.781
REMARK SMILES C=C1/C(=C\C=C2/CCC[C@]3(C)[C@@H]([C@H](C)CCCC(C)(C)O)CC[C@@H]23)C[C@@H](O)[C@@H](OCCCO)[C@@H]1O
REMARK SMILES IDX 5 1 6 2 7 3 8 4 9 5 10 6 11 7 12 8 22 9 23 10 24 11 4 12
REMARK SMILES IDX 1 13 2 14 3 15 34 16 25 17 28 18 26 19 35 20 29 22 30 23
REMARK SMILES IDX 31 24 32 25 33 26 27 28 13 30 14 31 15 32 16 33 17 34 18 35
REMARK SMILES IDX 19 36 20 37 21 38
REMARK H PARENT 35 21 33 27 27 29 21 39
ROOT
ATOM      1  C   UNL     1     135.311 136.800 149.448  1.00  0.00    -0.000 C 
ATOM      2  C   UNL     1     135.359 137.579 150.546  1.00  0.00    -0.067 C 
ATOM      3  C   UNL     1     136.080 138.911 150.660  1.00  0.00     0.031 C 
ATOM      4  C   UNL     1     135.179 140.018 151.220  1.00  0.00     0.005 C 
ATOM      5  C   UNL     1     134.427 139.607 152.496  1.00  0.00     0.008 C 
ATOM      6  C   UNL     1     133.655 138.278 152.319  1.00  0.00    -0.023 C 
ATOM      7  C   UNL     1     132.495 138.463 151.311  1.00  0.00     0.012 C 
ATOM      8  C   UNL     1     133.159 137.619 153.645  1.00  0.00    -0.002 C 
ATOM      9  C   UNL     1     133.097 136.104 153.288  1.00  0.00     0.005 C 
ATOM     10  C   UNL     1     133.932 135.895 152.021  1.00  0.00     0.009 C 
ATOM     11  C   UNL     1     134.687 137.210 151.855  1.00  0.00     0.021 C 
ENDROOT
BRANCH   1  12
ATOM     12  C   UNL     1     135.950 137.052 148.172  1.00  0.00     0.004 C 
ATOM     13  C   UNL     1     133.418 138.871 147.732  1.00  0.00     0.015 C 
ATOM     14  C   UNL     1     133.979 137.972 146.906  1.00  0.00    -0.021 C 
ATOM     15  C   UNL     1     135.370 137.533 147.052  1.00  0.00    -0.040 C 
ATOM     16  C   UNL     1     133.315 137.401 145.665  1.00  0.00     0.175 C 
ATOM     17  C   UNL     1     136.178 137.610 145.767  1.00  0.00     0.070 C 
ATOM     18  C   UNL     1     134.059 137.799 144.360  1.00  0.00     0.180 C 
ATOM     19  C   UNL     1     135.458 138.386 144.655  1.00  0.00     0.150 C 
BRANCH  16  20
ATOM     20  O   UNL     1     131.946 137.811 145.568  1.00  0.00    -0.386 OA
ATOM     21  H   UNL     1     131.943 138.768 145.743  1.00  0.00     0.211 HD
ENDBRANCH  16  20
BRANCH  18  22
ATOM     22  O   UNL     1     134.273 136.635 143.516  1.00  0.00    -0.372 OA
BRANCH  22  23
ATOM     23  C   UNL     1     133.075 135.880 143.316  1.00  0.00     0.163 C 
BRANCH  23  24
ATOM     24  C   UNL     1     133.446 134.410 143.143  1.00  0.00     0.057 C 
BRANCH  24  25
ATOM     25  C   UNL     1     133.747 133.735 144.476  1.00  0.00     0.158 C 
BRANCH  25  26
ATOM     26  O   UNL     1     134.858 134.356 145.110  1.00  0.00    -0.396 OA
ATOM     27  H   UNL     1     134.746 134.245 146.070  1.00  0.00     0.210 HD
ENDBRANCH  25  26
ENDBRANCH  24  25
ENDBRANCH  23  24
ENDBRANCH  22  23
ENDBRANCH  18  22
BRANCH  19  28
ATOM     28  O   UNL     1     136.256 138.368 143.464  1.00  0.00    -0.390 OA
ATOM     29  H   UNL     1     135.627 138.559 142.739  1.00  0.00     0.211 HD
ENDBRANCH  19  28
ENDBRANCH   1  12
BRANCH   8  30
ATOM     30  C   UNL     1     131.836 138.112 154.307  1.00  0.00    -0.011 C 
ATOM     31  C   UNL     1     132.071 138.715 155.696  1.00  0.00     0.008 C 
BRANCH  30  32
ATOM     32  C   UNL     1     130.813 136.945 154.397  1.00  0.00     0.004 C 
BRANCH  32  33
ATOM     33  C   UNL     1     129.347 137.399 154.456  1.00  0.00     0.003 C 
BRANCH  33  34
ATOM     34  C   UNL     1     128.399 136.200 154.335  1.00  0.00     0.034 C 
BRANCH  34  35
ATOM     35  C   UNL     1     127.392 136.032 155.492  1.00  0.00     0.059 C 
ATOM     36  C   UNL     1     125.984 135.705 154.992  1.00  0.00     0.042 C 
ATOM     37  C   UNL     1     127.357 137.248 156.421  1.00  0.00     0.042 C 
BRANCH  35  38
ATOM     38  O   UNL     1     127.821 134.905 156.270  1.00  0.00    -0.390 OA
ATOM     39  H   UNL     1     127.572 134.097 155.791  1.00  0.00     0.211 HD
ENDBRANCH  35  38
ENDBRANCH  34  35
ENDBRANCH  33  34
ENDBRANCH  32  33
ENDBRANCH  30  32
ENDBRANCH   8  30
TORSDOF 14
ENDMDL
