MODEL 1
REMARK VINA RESULT:    -7.432      0.000      0.000
REMARK INTER + INTRA:          -9.084
REMARK INTER:                  -9.387
REMARK INTRA:                   0.303
REMARK UNBOUND:                 0.303
REMARK SMILES NS(=O)(=O)c1cc2c(cc1C(F)(F)F)N[C@@H](Cc1ccccc1)NS2(=O)=O
REMARK SMILES IDX 5 1 6 2 7 3 8 4 9 5 10 6 15 7 16 8 24 9 25 10 26 11 27 12
REMARK SMILES IDX 2 15 3 16 4 17 1 18 11 21 12 22 13 23 14 24 17 25 18 26
REMARK SMILES IDX 19 27 23 28 20 29 22 30 21 31
REMARK H PARENT 15 13 24 14 1 19 1 20
ROOT
ATOM      1  C   UNL     1     133.365 137.210 148.908  1.00  0.00     0.095 A 
ATOM      2  C   UNL     1     133.221 136.249 149.917  1.00  0.00     0.046 A 
ATOM      3  C   UNL     1     133.052 136.663 151.241  1.00  0.00     0.107 A 
ATOM      4  C   UNL     1     132.993 138.008 151.597  1.00  0.00     0.056 A 
ATOM      5  C   UNL     1     133.126 138.952 150.569  1.00  0.00     0.041 A 
ATOM      6  C   UNL     1     133.324 138.582 149.218  1.00  0.00     0.078 A 
ATOM      7  N   UNL     1     132.843 138.470 152.903  1.00  0.00    -0.368 N 
ATOM      8  C   UNL     1     132.927 137.537 154.013  1.00  0.00     0.166 C 
ATOM      9  N   UNL     1     132.126 136.370 153.720  1.00  0.00    -0.189 NA
ATOM     10  S   UNL     1     132.771 135.450 152.482  1.00  0.00     0.244 S 
ATOM     11  O   UNL     1     134.059 134.945 152.902  1.00  0.00    -0.207 OA
ATOM     12  O   UNL     1     131.709 134.584 152.024  1.00  0.00    -0.207 OA
ATOM     13  H   UNL     1     132.090 139.150 152.991  1.00  0.00     0.162 HD
ATOM     14  H   UNL     1     131.134 136.546 153.576  1.00  0.00     0.143 HD
ENDROOT
BRANCH   1  15
ATOM     15  S   UNL     1     133.553 136.636 147.236  1.00  0.00     0.238 S 
ATOM     16  O   UNL     1     134.957 136.573 146.923  1.00  0.00    -0.207 OA
ATOM     17  O   UNL     1     132.606 137.326 146.394  1.00  0.00    -0.207 OA
BRANCH  15  18
ATOM     18  N   UNL     1     132.988 135.066 147.357  1.00  0.00    -0.225 NA
ATOM     19  H   UNL     1     133.132 134.567 146.477  1.00  0.00     0.137 HD
ATOM     20  H   UNL     1     133.398 134.600 148.170  1.00  0.00     0.137 HD
ENDBRANCH  15  18
ENDBRANCH   1  15
BRANCH   6  21
ATOM     21  C   UNL     1     133.449 139.680 148.184  1.00  0.00     0.417 C 
ATOM     22  F   UNL     1     132.300 139.877 147.486  1.00  0.00    -0.166 F 
ATOM     23  F   UNL     1     134.444 139.489 147.277  1.00  0.00    -0.166 F 
ATOM     24  F   UNL     1     133.730 140.891 148.752  1.00  0.00    -0.166 F 
ENDBRANCH   6  21
BRANCH   8  25
ATOM     25  C   UNL     1     132.493 138.189 155.347  1.00  0.00     0.077 C 
BRANCH  25  26
ATOM     26  C   UNL     1     131.000 138.317 155.566  1.00  0.00    -0.045 A 
ATOM     27  C   UNL     1     130.121 138.358 154.474  1.00  0.00     0.004 A 
ATOM     28  C   UNL     1     130.474 138.395 156.864  1.00  0.00     0.004 A 
ATOM     29  C   UNL     1     128.743 138.453 154.679  1.00  0.00     0.000 A 
ATOM     30  C   UNL     1     129.097 138.490 157.066  1.00  0.00     0.000 A 
ATOM     31  C   UNL     1     128.232 138.515 155.974  1.00  0.00     0.000 A 
ENDBRANCH  25  26
ENDBRANCH   8  25
TORSDOF 5
ENDMDL
