MODEL 1
REMARK VINA RESULT:    -7.722      0.000      0.000
REMARK INTER + INTRA:         -10.396
REMARK INTER:                  -9.528
REMARK INTRA:                  -0.869
REMARK UNBOUND:                -0.869
REMARK SMILES C[C@@H](C(=O)Nc1ccc(Cl)cc1)[C@H]1CC[C@@H](c2ccnc3ccc(F)cc32)CC1
REMARK SMILES IDX 1 1 2 2 3 3 4 4 5 5 6 7 7 8 12 9 8 10 11 11 9 12 10 13 13 14
REMARK SMILES IDX 29 15 14 16 28 17 15 18 16 19 17 20 18 21 27 22 19 23 26 24
REMARK SMILES IDX 21 25 20 26 24 27 22 28 23 29 25 30
REMARK H PARENT 5 6
ROOT
ATOM      1  C   UNL     1     132.964 136.996 155.645  1.00  0.00     0.018 C 
ATOM      2  C   UNL     1     132.511 137.361 154.227  1.00  0.00     0.079 C 
ENDROOT
BRANCH   2   3
ATOM      3  C   UNL     1     131.064 136.895 154.017  1.00  0.00     0.227 C 
ATOM      4  O   UNL     1     130.817 136.046 153.166  1.00  0.00    -0.274 OA
ATOM      5  N   UNL     1     130.146 137.519 154.840  1.00  0.00    -0.326 N 
ATOM      6  H   UNL     1     130.508 138.197 155.497  1.00  0.00     0.169 HD
BRANCH   5   7
ATOM      7  C   UNL     1     128.750 137.323 154.876  1.00  0.00     0.041 A 
ATOM      8  C   UNL     1     127.943 138.467 154.800  1.00  0.00     0.027 A 
ATOM      9  C   UNL     1     128.136 136.072 154.981  1.00  0.00     0.027 A 
ATOM     10  C   UNL     1     126.548 138.361 154.828  1.00  0.00     0.022 A 
ATOM     11  C   UNL     1     126.741 135.964 155.008  1.00  0.00     0.022 A 
ATOM     12  C   UNL     1     125.953 137.108 154.932  1.00  0.00     0.041 A 
ATOM     13  Cl  UNL     1     124.239 136.975 154.966  1.00  0.00    -0.084 Cl
ENDBRANCH   5   7
ENDBRANCH   2   3
BRANCH   2  14
ATOM     14  C   UNL     1     132.693 138.872 153.895  1.00  0.00     0.001 C 
ATOM     15  C   UNL     1     134.171 139.287 153.763  1.00  0.00     0.005 C 
ATOM     16  C   UNL     1     131.949 139.292 152.609  1.00  0.00     0.005 C 
ATOM     17  C   UNL     1     134.842 138.723 152.509  1.00  0.00     0.009 C 
ATOM     18  C   UNL     1     132.586 138.715 151.344  1.00  0.00     0.009 C 
ATOM     19  C   UNL     1     134.074 139.109 151.233  1.00  0.00     0.020 C 
BRANCH  19  20
ATOM     20  C   UNL     1     134.790 138.570 149.996  1.00  0.00    -0.034 A 
ATOM     21  C   UNL     1     135.870 137.690 150.142  1.00  0.00     0.025 A 
ATOM     22  C   UNL     1     134.424 138.970 148.675  1.00  0.00     0.007 A 
ATOM     23  C   UNL     1     136.509 137.212 149.014  1.00  0.00     0.112 A 
ATOM     24  C   UNL     1     133.391 139.889 148.369  1.00  0.00     0.049 A 
ATOM     25  C   UNL     1     135.155 138.410 147.593  1.00  0.00     0.071 A 
ATOM     26  N   UNL     1     136.167 137.550 147.758  1.00  0.00    -0.256 NA
ATOM     27  C   UNL     1     133.093 140.221 147.052  1.00  0.00     0.123 A 
ATOM     28  C   UNL     1     134.827 138.763 146.289  1.00  0.00     0.032 A 
ATOM     29  C   UNL     1     133.801 139.663 146.005  1.00  0.00     0.041 A 
ATOM     30  F   UNL     1     132.111 141.094 146.799  1.00  0.00    -0.207 F 
ENDBRANCH  19  20
ENDBRANCH   2  14
TORSDOF 4
ENDMDL
