MODEL 1
REMARK VINA RESULT:    -6.974      0.000      0.000
REMARK INTER + INTRA:         -12.005
REMARK INTER:                  -9.624
REMARK INTRA:                  -2.381
REMARK UNBOUND:                -2.381
REMARK SMILES O=C(O)c1ccc(N2C(=O)/C(=C/c3ccc(-c4ccc([N+](=O)[O-])cc4)o3)C=C2c2ccccc2)cc1
REMARK SMILES IDX 8 1 9 2 10 3 11 4 12 5 27 6 28 7 7 8 4 9 5 10 36 11 6 12
REMARK SMILES IDX 35 13 2 14 1 15 3 16 29 18 30 19 34 20 31 21 33 22 32 23
REMARK SMILES IDX 13 24 14 25 26 26 15 27 16 28 17 29 18 30 25 31 19 32 24 33
REMARK SMILES IDX 20 34 21 35 22 36 23 37
REMARK H PARENT 3 17
ROOT
ATOM      1  N   UNL     1     134.167 137.131 148.994  1.00  0.00    -0.276 N 
ATOM      2  C   UNL     1     134.201 136.322 150.160  1.00  0.00     0.263 C 
ATOM      3  O   UNL     1     134.794 135.286 150.403  1.00  0.00    -0.268 OA
ATOM      4  C   UNL     1     133.326 137.051 151.138  1.00  0.00     0.046 C 
ATOM      5  C   UNL     1     133.137 136.573 152.375  1.00  0.00     0.061 C 
ATOM      6  C   UNL     1     132.845 138.230 150.473  1.00  0.00     0.041 C 
ATOM      7  C   UNL     1     133.353 138.242 149.231  1.00  0.00     0.057 C 
ENDROOT
BRANCH   1   8
ATOM      8  C   UNL     1     134.937 136.809 147.832  1.00  0.00     0.049 A 
ATOM      9  C   UNL     1     136.482 136.177 145.536  1.00  0.00     0.060 A 
ATOM     10  C   UNL     1     137.052 136.876 146.600  1.00  0.00     0.018 A 
ATOM     11  C   UNL     1     135.140 135.801 145.610  1.00  0.00     0.018 A 
ATOM     12  C   UNL     1     136.284 137.191 147.730  1.00  0.00     0.027 A 
ATOM     13  C   UNL     1     134.379 136.118 146.745  1.00  0.00     0.027 A 
BRANCH   9  14
ATOM     14  C   UNL     1     137.328 135.864 144.358  1.00  0.00     0.335 C 
ATOM     15  O   UNL     1     137.255 136.395 143.266  1.00  0.00    -0.246 OA
BRANCH  14  16
ATOM     16  O   UNL     1     138.232 134.900 144.607  1.00  0.00    -0.478 OA
ATOM     17  H   UNL     1     139.038 135.398 144.859  1.00  0.00     0.297 HD
ENDBRANCH  14  16
ENDBRANCH   9  14
ENDBRANCH   1   8
BRANCH   7  18
ATOM     18  C   UNL     1     132.947 139.255 148.255  1.00  0.00    -0.001 A 
ATOM     19  C   UNL     1     133.632 140.475 148.172  1.00  0.00     0.010 A 
ATOM     20  C   UNL     1     131.891 139.005 147.365  1.00  0.00     0.010 A 
ATOM     21  C   UNL     1     133.257 141.435 147.230  1.00  0.00     0.001 A 
ATOM     22  C   UNL     1     131.517 139.967 146.424  1.00  0.00     0.001 A 
ATOM     23  C   UNL     1     132.200 141.181 146.359  1.00  0.00     0.000 A 
ENDBRANCH   7  18
BRANCH   5  24
ATOM     24  C   UNL     1     132.321 137.174 153.370  1.00  0.00     0.128 A 
ATOM     25  C   UNL     1     132.623 138.037 154.416  1.00  0.00     0.051 A 
ATOM     26  O   UNL     1     130.956 136.990 153.382  1.00  0.00    -0.457 OA
ATOM     27  C   UNL     1     131.418 138.350 155.089  1.00  0.00     0.051 A 
ATOM     28  C   UNL     1     130.413 137.684 154.422  1.00  0.00     0.134 A 
BRANCH  28  29
ATOM     29  C   UNL     1     128.964 137.580 154.585  1.00  0.00     0.018 A 
ATOM     30  C   UNL     1     128.321 136.330 154.582  1.00  0.00     0.019 A 
ATOM     31  C   UNL     1     128.180 138.733 154.748  1.00  0.00     0.019 A 
ATOM     32  C   UNL     1     126.933 136.229 154.738  1.00  0.00     0.086 A 
ATOM     33  C   UNL     1     126.791 138.647 154.905  1.00  0.00     0.086 A 
ATOM     34  C   UNL     1     126.173 137.391 154.899  1.00  0.00     0.269 A 
BRANCH  34  35
ATOM     35  N   UNL     1     124.716 137.295 155.064  1.00  0.00     0.062 N 
ATOM     36  O   UNL     1     124.103 136.515 154.322  1.00  0.00    -0.258 OA
ATOM     37  O   UNL     1     124.188 137.998 155.937  1.00  0.00    -0.258 OA
ENDBRANCH  34  35
ENDBRANCH  28  29
ENDBRANCH   5  24
TORSDOF 7
ENDMDL
