MODEL 1
REMARK VINA RESULT:    -7.774      0.000      0.000
REMARK INTER + INTRA:          -9.491
REMARK INTER:                  -9.819
REMARK INTRA:                   0.328
REMARK UNBOUND:                 0.328
REMARK SMILES NS(=O)(=O)c1cc2c(cc1C(F)(F)F)N[C@@H](Cc1ccccc1)NS2(=O)=O
REMARK SMILES IDX 5 1 6 2 7 3 8 4 9 5 10 6 15 7 16 8 24 9 25 10 26 11 27 12
REMARK SMILES IDX 2 15 3 16 4 17 1 18 11 21 12 22 13 23 14 24 17 25 18 26
REMARK SMILES IDX 19 27 23 28 20 29 22 30 21 31
REMARK H PARENT 15 13 24 14 1 19 1 20
ROOT
ATOM      1  C   UNL     1     133.355 137.211 148.878  1.00  0.00     0.095 A 
ATOM      2  C   UNL     1     133.228 136.243 149.882  1.00  0.00     0.046 A 
ATOM      3  C   UNL     1     133.077 136.647 151.211  1.00  0.00     0.107 A 
ATOM      4  C   UNL     1     133.017 137.989 151.576  1.00  0.00     0.056 A 
ATOM      5  C   UNL     1     133.133 138.941 150.554  1.00  0.00     0.041 A 
ATOM      6  C   UNL     1     133.313 138.580 149.197  1.00  0.00     0.078 A 
ATOM      7  N   UNL     1     132.884 138.441 152.888  1.00  0.00    -0.368 N 
ATOM      8  C   UNL     1     132.986 137.501 153.990  1.00  0.00     0.166 C 
ATOM      9  N   UNL     1     132.186 136.333 153.700  1.00  0.00    -0.189 NA
ATOM     10  S   UNL     1     132.817 135.424 152.448  1.00  0.00     0.244 S 
ATOM     11  O   UNL     1     134.113 134.922 152.846  1.00  0.00    -0.207 OA
ATOM     12  O   UNL     1     131.752 134.557 151.998  1.00  0.00    -0.207 OA
ATOM     13  H   UNL     1     132.130 139.118 152.991  1.00  0.00     0.162 HD
ATOM     14  H   UNL     1     131.192 136.507 153.571  1.00  0.00     0.143 HD
ENDROOT
BRANCH   1  15
ATOM     15  S   UNL     1     133.522 136.648 147.199  1.00  0.00     0.238 S 
ATOM     16  O   UNL     1     134.922 136.596 146.865  1.00  0.00    -0.207 OA
ATOM     17  O   UNL     1     132.559 137.339 146.375  1.00  0.00    -0.207 OA
BRANCH  15  18
ATOM     18  N   UNL     1     132.967 135.075 147.318  1.00  0.00    -0.225 NA
ATOM     19  H   UNL     1     132.454 134.943 148.192  1.00  0.00     0.137 HD
ATOM     20  H   UNL     1     132.435 134.820 146.482  1.00  0.00     0.137 HD
ENDBRANCH  15  18
ENDBRANCH   1  15
BRANCH   6  21
ATOM     21  C   UNL     1     133.420 139.686 148.169  1.00  0.00     0.417 C 
ATOM     22  F   UNL     1     132.260 139.886 147.492  1.00  0.00    -0.166 F 
ATOM     23  F   UNL     1     134.401 139.502 147.245  1.00  0.00    -0.166 F 
ATOM     24  F   UNL     1     133.708 140.893 148.741  1.00  0.00    -0.166 F 
ENDBRANCH   6  21
BRANCH   8  25
ATOM     25  C   UNL     1     132.569 138.142 155.335  1.00  0.00     0.077 C 
BRANCH  25  26
ATOM     26  C   UNL     1     131.079 138.285 155.565  1.00  0.00    -0.045 A 
ATOM     27  C   UNL     1     130.188 138.297 154.482  1.00  0.00     0.004 A 
ATOM     28  C   UNL     1     130.567 138.406 156.865  1.00  0.00     0.004 A 
ATOM     29  C   UNL     1     128.813 138.404 154.698  1.00  0.00     0.000 A 
ATOM     30  C   UNL     1     129.192 138.513 157.079  1.00  0.00     0.000 A 
ATOM     31  C   UNL     1     128.316 138.509 155.996  1.00  0.00     0.000 A 
ENDBRANCH  25  26
ENDBRANCH   8  25
TORSDOF 5
ENDMDL
