MODEL 1
REMARK VINA RESULT:    -6.307      0.000      0.000
REMARK INTER + INTRA:         -13.856
REMARK INTER:                 -10.731
REMARK INTRA:                  -3.125
REMARK UNBOUND:                -3.125
REMARK SMILES C=C1/C(=C\C=C2/CCC[C@]3(C)[C@@H]([C@H](C)CCCC(C)(C)O)CC[C@@H]23)C[C@@H](O)[C@@H](OCCCO)[C@@H]1O
REMARK SMILES IDX 5 1 6 2 7 3 8 4 9 5 10 6 11 7 12 8 22 9 23 10 24 11 4 12
REMARK SMILES IDX 1 13 2 14 3 15 34 16 25 17 28 18 26 19 35 20 29 22 30 23
REMARK SMILES IDX 31 24 32 25 33 26 27 28 13 30 14 31 15 32 16 33 17 34 18 35
REMARK SMILES IDX 19 36 20 37 21 38
REMARK H PARENT 35 21 33 27 27 29 21 39
ROOT
ATOM      1  C   UNL     1     135.252 136.823 149.596  1.00  0.00    -0.000 C 
ATOM      2  C   UNL     1     135.274 137.616 150.686  1.00  0.00    -0.067 C 
ATOM      3  C   UNL     1     135.957 138.969 150.787  1.00  0.00     0.031 C 
ATOM      4  C   UNL     1     135.022 140.056 151.331  1.00  0.00     0.005 C 
ATOM      5  C   UNL     1     134.279 139.638 152.609  1.00  0.00     0.008 C 
ATOM      6  C   UNL     1     133.546 138.286 152.446  1.00  0.00    -0.023 C 
ATOM      7  C   UNL     1     132.384 138.425 151.433  1.00  0.00     0.012 C 
ATOM      8  C   UNL     1     133.064 137.627 153.778  1.00  0.00    -0.002 C 
ATOM      9  C   UNL     1     133.047 136.108 153.438  1.00  0.00     0.005 C 
ATOM     10  C   UNL     1     133.891 135.908 152.176  1.00  0.00     0.009 C 
ATOM     11  C   UNL     1     134.610 137.242 151.996  1.00  0.00     0.021 C 
ENDROOT
BRANCH   1  12
ATOM     12  C   UNL     1     135.888 137.079 148.319  1.00  0.00     0.004 C 
ATOM     13  C   UNL     1     133.343 138.879 147.881  1.00  0.00     0.015 C 
ATOM     14  C   UNL     1     133.909 137.984 147.055  1.00  0.00    -0.021 C 
ATOM     15  C   UNL     1     135.303 137.555 147.200  1.00  0.00    -0.040 C 
ATOM     16  C   UNL     1     133.247 137.407 145.815  1.00  0.00     0.175 C 
ATOM     17  C   UNL     1     136.109 137.637 145.914  1.00  0.00     0.070 C 
ATOM     18  C   UNL     1     133.987 137.810 144.510  1.00  0.00     0.180 C 
ATOM     19  C   UNL     1     135.382 138.408 144.802  1.00  0.00     0.150 C 
BRANCH  16  20
ATOM     20  O   UNL     1     131.875 137.807 145.720  1.00  0.00    -0.386 OA
ATOM     21  H   UNL     1     131.356 137.053 146.052  1.00  0.00     0.211 HD
ENDBRANCH  16  20
BRANCH  18  22
ATOM     22  O   UNL     1     134.208 136.647 143.666  1.00  0.00    -0.372 OA
BRANCH  22  23
ATOM     23  C   UNL     1     133.701 135.445 144.252  1.00  0.00     0.163 C 
BRANCH  23  24
ATOM     24  C   UNL     1     134.781 134.371 144.179  1.00  0.00     0.057 C 
BRANCH  24  25
ATOM     25  C   UNL     1     135.652 134.517 142.937  1.00  0.00     0.158 C 
BRANCH  25  26
ATOM     26  O   UNL     1     136.530 135.628 143.071  1.00  0.00    -0.396 OA
ATOM     27  H   UNL     1     136.006 136.375 143.408  1.00  0.00     0.210 HD
ENDBRANCH  25  26
ENDBRANCH  24  25
ENDBRANCH  23  24
ENDBRANCH  22  23
ENDBRANCH  18  22
BRANCH  19  28
ATOM     28  O   UNL     1     136.178 138.394 143.610  1.00  0.00    -0.390 OA
ATOM     29  H   UNL     1     135.531 138.431 142.877  1.00  0.00     0.211 HD
ENDBRANCH  19  28
ENDBRANCH   1  12
BRANCH   8  30
ATOM     30  C   UNL     1     131.725 138.090 154.431  1.00  0.00    -0.011 C 
ATOM     31  C   UNL     1     131.920 138.581 155.869  1.00  0.00     0.008 C 
BRANCH  30  32
ATOM     32  C   UNL     1     130.685 136.937 154.396  1.00  0.00     0.004 C 
BRANCH  32  33
ATOM     33  C   UNL     1     129.230 137.397 154.574  1.00  0.00     0.003 C 
BRANCH  33  34
ATOM     34  C   UNL     1     128.257 136.233 154.355  1.00  0.00     0.034 C 
BRANCH  34  35
ATOM     35  C   UNL     1     127.277 135.962 155.515  1.00  0.00     0.059 C 
ATOM     36  C   UNL     1     125.875 135.606 155.018  1.00  0.00     0.042 C 
ATOM     37  C   UNL     1     127.208 137.124 156.509  1.00  0.00     0.042 C 
BRANCH  35  38
ATOM     38  O   UNL     1     127.763 134.814 156.225  1.00  0.00    -0.390 OA
ATOM     39  H   UNL     1     127.930 135.079 157.145  1.00  0.00     0.211 HD
ENDBRANCH  35  38
ENDBRANCH  34  35
ENDBRANCH  33  34
ENDBRANCH  32  33
ENDBRANCH  30  32
ENDBRANCH   8  30
TORSDOF 14
ENDMDL
