MODEL 1
REMARK VINA RESULT:    -7.760      0.000      0.000
REMARK INTER + INTRA:          -9.492
REMARK INTER:                  -9.801
REMARK INTRA:                   0.310
REMARK UNBOUND:                 0.310
REMARK SMILES NS(=O)(=O)c1cc2c(cc1C(F)(F)F)N[C@@H](Cc1ccccc1)NS2(=O)=O
REMARK SMILES IDX 5 1 6 2 7 3 8 4 9 5 10 6 15 7 16 8 24 9 25 10 26 11 27 12
REMARK SMILES IDX 2 15 3 16 4 17 1 18 11 21 12 22 13 23 14 24 17 25 18 26
REMARK SMILES IDX 19 27 23 28 20 29 22 30 21 31
REMARK H PARENT 15 13 24 14 1 19 1 20
ROOT
ATOM      1  C   UNL     1     133.357 137.210 148.879  1.00  0.00     0.095 A 
ATOM      2  C   UNL     1     133.222 136.242 149.882  1.00  0.00     0.046 A 
ATOM      3  C   UNL     1     133.068 136.645 151.211  1.00  0.00     0.107 A 
ATOM      4  C   UNL     1     133.014 137.988 151.578  1.00  0.00     0.056 A 
ATOM      5  C   UNL     1     133.139 138.940 150.556  1.00  0.00     0.041 A 
ATOM      6  C   UNL     1     133.321 138.580 149.200  1.00  0.00     0.078 A 
ATOM      7  N   UNL     1     132.878 138.439 152.889  1.00  0.00    -0.368 N 
ATOM      8  C   UNL     1     132.971 137.497 153.990  1.00  0.00     0.166 C 
ATOM      9  N   UNL     1     132.166 136.334 153.696  1.00  0.00    -0.189 NA
ATOM     10  S   UNL     1     132.797 135.422 152.445  1.00  0.00     0.244 S 
ATOM     11  O   UNL     1     134.088 134.913 152.847  1.00  0.00    -0.207 OA
ATOM     12  O   UNL     1     131.729 134.562 151.991  1.00  0.00    -0.207 OA
ATOM     13  H   UNL     1     132.127 139.119 152.990  1.00  0.00     0.162 HD
ATOM     14  H   UNL     1     131.173 136.512 153.564  1.00  0.00     0.143 HD
ENDROOT
BRANCH   1  15
ATOM     15  S   UNL     1     133.527 136.649 147.201  1.00  0.00     0.238 S 
ATOM     16  O   UNL     1     134.928 136.597 146.869  1.00  0.00    -0.207 OA
ATOM     17  O   UNL     1     132.565 137.340 146.375  1.00  0.00    -0.207 OA
BRANCH  15  18
ATOM     18  N   UNL     1     132.973 135.075 147.317  1.00  0.00    -0.225 NA
ATOM     19  H   UNL     1     133.643 134.429 146.896  1.00  0.00     0.137 HD
ATOM     20  H   UNL     1     132.735 134.851 148.287  1.00  0.00     0.137 HD
ENDBRANCH  15  18
ENDBRANCH   1  15
BRANCH   6  21
ATOM     21  C   UNL     1     133.438 139.686 148.174  1.00  0.00     0.417 C 
ATOM     22  F   UNL     1     132.282 139.891 147.491  1.00  0.00    -0.166 F 
ATOM     23  F   UNL     1     134.423 139.499 147.254  1.00  0.00    -0.166 F 
ATOM     24  F   UNL     1     133.729 140.891 148.749  1.00  0.00    -0.166 F 
ENDBRANCH   6  21
BRANCH   8  25
ATOM     25  C   UNL     1     132.553 138.139 155.335  1.00  0.00     0.077 C 
BRANCH  25  26
ATOM     26  C   UNL     1     131.063 138.288 155.560  1.00  0.00    -0.045 A 
ATOM     27  C   UNL     1     130.177 138.326 154.472  1.00  0.00     0.004 A 
ATOM     28  C   UNL     1     130.545 138.390 156.859  1.00  0.00     0.004 A 
ATOM     29  C   UNL     1     128.802 138.440 154.683  1.00  0.00     0.000 A 
ATOM     30  C   UNL     1     129.170 138.504 157.068  1.00  0.00     0.000 A 
ATOM     31  C   UNL     1     128.299 138.525 155.980  1.00  0.00     0.000 A 
ENDBRANCH  25  26
ENDBRANCH   8  25
TORSDOF 5
ENDMDL
