MODEL 1
REMARK VINA RESULT:    -6.649      0.000      0.000
REMARK INTER + INTRA:         -14.085
REMARK INTER:                 -11.314
REMARK INTRA:                  -2.772
REMARK UNBOUND:                -2.772
REMARK SMILES C=C1/C(=C\C=C2/CCC[C@]3(C)[C@@H]([C@H](C)CCCC(C)(C)O)CC[C@@H]23)C[C@@H](O)[C@@H](OCCCO)[C@@H]1O
REMARK SMILES IDX 5 1 6 2 7 3 8 4 9 5 10 6 11 7 12 8 22 9 23 10 24 11 4 12
REMARK SMILES IDX 1 13 2 14 3 15 34 16 25 17 28 18 26 19 35 20 29 22 30 23
REMARK SMILES IDX 31 24 32 25 33 26 27 28 13 30 14 31 15 32 16 33 17 34 18 35
REMARK SMILES IDX 19 36 20 37 21 38
REMARK H PARENT 35 21 33 27 27 29 21 39
ROOT
ATOM      1  C   UNL     1     135.301 136.806 149.651  1.00  0.00    -0.000 C 
ATOM      2  C   UNL     1     135.310 137.600 150.739  1.00  0.00    -0.067 C 
ATOM      3  C   UNL     1     135.989 138.955 150.845  1.00  0.00     0.031 C 
ATOM      4  C   UNL     1     135.047 140.042 151.377  1.00  0.00     0.005 C 
ATOM      5  C   UNL     1     134.289 139.625 152.647  1.00  0.00     0.008 C 
ATOM      6  C   UNL     1     133.560 138.272 152.477  1.00  0.00    -0.023 C 
ATOM      7  C   UNL     1     132.409 138.408 151.450  1.00  0.00     0.012 C 
ATOM      8  C   UNL     1     133.063 137.615 153.805  1.00  0.00    -0.002 C 
ATOM      9  C   UNL     1     133.052 136.095 153.468  1.00  0.00     0.005 C 
ATOM     10  C   UNL     1     133.911 135.894 152.216  1.00  0.00     0.009 C 
ATOM     11  C   UNL     1     134.630 137.228 152.042  1.00  0.00     0.021 C 
ENDROOT
BRANCH   1  12
ATOM     12  C   UNL     1     135.952 137.060 148.381  1.00  0.00     0.004 C 
ATOM     13  C   UNL     1     133.372 138.793 147.878  1.00  0.00     0.015 C 
ATOM     14  C   UNL     1     133.972 137.900 147.073  1.00  0.00    -0.021 C 
ATOM     15  C   UNL     1     135.374 137.507 147.246  1.00  0.00    -0.040 C 
ATOM     16  C   UNL     1     133.345 137.291 145.830  1.00  0.00     0.175 C 
ATOM     17  C   UNL     1     136.199 137.592 145.972  1.00  0.00     0.070 C 
ATOM     18  C   UNL     1     134.096 137.695 144.532  1.00  0.00     0.180 C 
ATOM     19  C   UNL     1     135.472 138.329 144.838  1.00  0.00     0.150 C 
BRANCH  16  20
ATOM     20  O   UNL     1     131.966 137.657 145.707  1.00  0.00    -0.386 OA
ATOM     21  H   UNL     1     131.941 138.382 145.059  1.00  0.00     0.211 HD
ENDBRANCH  16  20
BRANCH  18  22
ATOM     22  O   UNL     1     134.360 136.526 143.708  1.00  0.00    -0.372 OA
BRANCH  22  23
ATOM     23  C   UNL     1     133.158 135.913 143.232  1.00  0.00     0.163 C 
BRANCH  23  24
ATOM     24  C   UNL     1     133.376 134.407 143.147  1.00  0.00     0.057 C 
BRANCH  24  25
ATOM     25  C   UNL     1     133.716 133.800 144.504  1.00  0.00     0.158 C 
BRANCH  25  26
ATOM     26  O   UNL     1     134.974 134.279 144.964  1.00  0.00    -0.396 OA
ATOM     27  H   UNL     1     134.812 134.784 145.780  1.00  0.00     0.210 HD
ENDBRANCH  25  26
ENDBRANCH  24  25
ENDBRANCH  23  24
ENDBRANCH  22  23
ENDBRANCH  18  22
BRANCH  19  28
ATOM     28  O   UNL     1     136.288 138.319 143.660  1.00  0.00    -0.390 OA
ATOM     29  H   UNL     1     135.946 137.573 143.125  1.00  0.00     0.211 HD
ENDBRANCH  19  28
ENDBRANCH   1  12
BRANCH   8  30
ATOM     30  C   UNL     1     131.717 138.078 154.441  1.00  0.00    -0.011 C 
ATOM     31  C   UNL     1     131.892 138.563 155.884  1.00  0.00     0.008 C 
BRANCH  30  32
ATOM     32  C   UNL     1     130.675 136.926 154.388  1.00  0.00     0.004 C 
BRANCH  32  33
ATOM     33  C   UNL     1     129.214 137.396 154.453  1.00  0.00     0.003 C 
BRANCH  33  34
ATOM     34  C   UNL     1     128.252 136.208 154.342  1.00  0.00     0.034 C 
BRANCH  34  35
ATOM     35  C   UNL     1     127.286 136.025 155.531  1.00  0.00     0.059 C 
ATOM     36  C   UNL     1     125.862 135.702 155.076  1.00  0.00     0.042 C 
ATOM     37  C   UNL     1     127.281 137.229 156.475  1.00  0.00     0.042 C 
BRANCH  35  38
ATOM     38  O   UNL     1     127.743 134.890 156.280  1.00  0.00    -0.390 OA
ATOM     39  H   UNL     1     127.952 134.180 155.651  1.00  0.00     0.211 HD
ENDBRANCH  35  38
ENDBRANCH  34  35
ENDBRANCH  33  34
ENDBRANCH  32  33
ENDBRANCH  30  32
ENDBRANCH   8  30
TORSDOF 14
ENDMDL
