MODEL 1
REMARK VINA RESULT:    -8.050      0.000      0.000
REMARK INTER + INTRA:          -8.050
REMARK INTER:                  -8.050
REMARK INTRA:                   0.000
REMARK UNBOUND:                 0.000
REMARK SMILES NC1=NC[C@@H]2c3ccccc3Cc3ccccc3N12
REMARK SMILES IDX 1 1 2 2 3 3 4 4 5 5 6 6 7 7 8 8 9 9 10 10 11 11 12 12 13 13
REMARK SMILES IDX 14 14 15 15 16 16 17 17 18 18 19 19
REMARK H PARENT 1 20 1 21
ROOT
ATOM      1  N   UNL     1     134.509 135.015 151.607  1.00  0.00    -0.369 N 
ATOM      2  C   UNL     1     133.286 135.010 152.182  1.00  0.00     0.196 C 
ATOM      3  N   UNL     1     132.546 133.931 152.136  1.00  0.00    -0.250 NA
ATOM      4  C   UNL     1     131.326 134.345 152.885  1.00  0.00     0.176 C 
ATOM      5  C   UNL     1     131.752 135.551 153.758  1.00  0.00     0.143 C 
ATOM      6  C   UNL     1     130.669 136.521 154.188  1.00  0.00    -0.020 A 
ATOM      7  C   UNL     1     129.313 136.363 153.862  1.00  0.00     0.006 A 
ATOM      8  C   UNL     1     128.352 137.260 154.335  1.00  0.00     0.000 A 
ATOM      9  C   UNL     1     128.725 138.325 155.147  1.00  0.00     0.000 A 
ATOM     10  C   UNL     1     130.062 138.496 155.492  1.00  0.00     0.004 A 
ATOM     11  C   UNL     1     131.035 137.598 155.025  1.00  0.00    -0.038 A 
ATOM     12  C   UNL     1     132.492 137.807 155.366  1.00  0.00     0.073 C 
ATOM     13  C   UNL     1     133.284 138.205 154.142  1.00  0.00    -0.020 A 
ATOM     14  C   UNL     1     133.898 139.478 154.157  1.00  0.00     0.006 A 
ATOM     15  C   UNL     1     134.596 139.955 153.054  1.00  0.00     0.000 A 
ATOM     16  C   UNL     1     134.674 139.173 151.914  1.00  0.00     0.002 A 
ATOM     17  C   UNL     1     134.074 137.911 151.895  1.00  0.00     0.027 A 
ATOM     18  C   UNL     1     133.389 137.369 153.006  1.00  0.00     0.048 A 
ATOM     19  N   UNL     1     132.840 136.081 152.922  1.00  0.00    -0.303 N 
ATOM     20  H   UNL     1     135.219 135.460 152.174  1.00  0.00     0.159 HD
ATOM     21  H   UNL     1     134.777 134.079 151.323  1.00  0.00     0.159 HD
ENDROOT
TORSDOF 0
ENDMDL
