MODEL 1
REMARK VINA RESULT:    -7.779      0.000      0.000
REMARK INTER + INTRA:          -9.497
REMARK INTER:                  -9.825
REMARK INTRA:                   0.328
REMARK UNBOUND:                 0.328
REMARK SMILES NS(=O)(=O)c1cc2c(cc1C(F)(F)F)N[C@@H](Cc1ccccc1)NS2(=O)=O
REMARK SMILES IDX 5 1 6 2 7 3 8 4 9 5 10 6 15 7 16 8 24 9 25 10 26 11 27 12
REMARK SMILES IDX 2 15 3 16 4 17 1 18 11 21 12 22 13 23 14 24 17 25 18 26
REMARK SMILES IDX 19 27 23 28 20 29 22 30 21 31
REMARK H PARENT 15 13 24 14 1 19 1 20
ROOT
ATOM      1  C   UNL     1     133.361 137.209 148.870  1.00  0.00     0.095 A 
ATOM      2  C   UNL     1     133.236 136.241 149.875  1.00  0.00     0.046 A 
ATOM      3  C   UNL     1     133.084 136.646 151.204  1.00  0.00     0.107 A 
ATOM      4  C   UNL     1     133.020 137.989 151.568  1.00  0.00     0.056 A 
ATOM      5  C   UNL     1     133.135 138.940 150.545  1.00  0.00     0.041 A 
ATOM      6  C   UNL     1     133.316 138.579 149.188  1.00  0.00     0.078 A 
ATOM      7  N   UNL     1     132.886 138.441 152.879  1.00  0.00    -0.368 N 
ATOM      8  C   UNL     1     132.990 137.502 153.982  1.00  0.00     0.166 C 
ATOM      9  N   UNL     1     132.193 136.332 153.693  1.00  0.00    -0.189 NA
ATOM     10  S   UNL     1     132.826 135.423 152.441  1.00  0.00     0.244 S 
ATOM     11  O   UNL     1     134.123 134.924 152.840  1.00  0.00    -0.207 OA
ATOM     12  O   UNL     1     131.763 134.554 151.992  1.00  0.00    -0.207 OA
ATOM     13  H   UNL     1     132.131 139.116 152.981  1.00  0.00     0.162 HD
ATOM     14  H   UNL     1     131.198 136.503 153.563  1.00  0.00     0.143 HD
ENDROOT
BRANCH   1  15
ATOM     15  S   UNL     1     133.530 136.646 147.192  1.00  0.00     0.238 S 
ATOM     16  O   UNL     1     134.930 136.586 146.862  1.00  0.00    -0.207 OA
ATOM     17  O   UNL     1     132.572 137.341 146.366  1.00  0.00    -0.207 OA
BRANCH  15  18
ATOM     18  N   UNL     1     132.966 135.075 147.309  1.00  0.00    -0.225 NA
ATOM     19  H   UNL     1     132.009 135.066 147.665  1.00  0.00     0.137 HD
ATOM     20  H   UNL     1     133.082 134.587 146.418  1.00  0.00     0.137 HD
ENDBRANCH  15  18
ENDBRANCH   1  15
BRANCH   6  21
ATOM     21  C   UNL     1     133.420 139.684 148.160  1.00  0.00     0.417 C 
ATOM     22  F   UNL     1     132.260 139.880 147.482  1.00  0.00    -0.166 F 
ATOM     23  F   UNL     1     134.402 139.502 147.236  1.00  0.00    -0.166 F 
ATOM     24  F   UNL     1     133.706 140.892 148.731  1.00  0.00    -0.166 F 
ENDBRANCH   6  21
BRANCH   8  25
ATOM     25  C   UNL     1     132.571 138.143 155.326  1.00  0.00     0.077 C 
BRANCH  25  26
ATOM     26  C   UNL     1     131.081 138.285 155.555  1.00  0.00    -0.045 A 
ATOM     27  C   UNL     1     130.191 138.297 154.470  1.00  0.00     0.004 A 
ATOM     28  C   UNL     1     130.567 138.406 156.854  1.00  0.00     0.004 A 
ATOM     29  C   UNL     1     128.816 138.404 154.685  1.00  0.00     0.000 A 
ATOM     30  C   UNL     1     129.192 138.513 157.066  1.00  0.00     0.000 A 
ATOM     31  C   UNL     1     128.317 138.509 155.982  1.00  0.00     0.000 A 
ENDBRANCH  25  26
ENDBRANCH   8  25
TORSDOF 5
ENDMDL
