MODEL 1
REMARK VINA RESULT:    -7.726      0.000      0.000
REMARK INTER + INTRA:         -10.382
REMARK INTER:                  -9.533
REMARK INTRA:                  -0.850
REMARK UNBOUND:                -0.850
REMARK SMILES C[C@@H](C(=O)Nc1ccc(Cl)cc1)[C@H]1CC[C@@H](c2ccnc3ccc(F)cc32)CC1
REMARK SMILES IDX 1 1 2 2 3 3 4 4 5 5 6 7 7 8 12 9 8 10 11 11 9 12 10 13 13 14
REMARK SMILES IDX 29 15 14 16 28 17 15 18 16 19 17 20 18 21 27 22 19 23 26 24
REMARK SMILES IDX 21 25 20 26 24 27 22 28 23 29 25 30
REMARK H PARENT 5 6
ROOT
ATOM      1  C   UNL     1     132.933 137.043 155.683  1.00  0.00     0.018 C 
ATOM      2  C   UNL     1     132.506 137.394 154.253  1.00  0.00     0.079 C 
ENDROOT
BRANCH   2   3
ATOM      3  C   UNL     1     131.064 136.920 154.020  1.00  0.00     0.227 C 
ATOM      4  O   UNL     1     130.832 136.084 153.152  1.00  0.00    -0.274 OA
ATOM      5  N   UNL     1     130.133 137.524 154.844  1.00  0.00    -0.326 N 
ATOM      6  H   UNL     1     130.483 138.193 155.516  1.00  0.00     0.169 HD
BRANCH   5   7
ATOM      7  C   UNL     1     128.738 137.316 154.862  1.00  0.00     0.041 A 
ATOM      8  C   UNL     1     127.923 138.455 154.793  1.00  0.00     0.027 A 
ATOM      9  C   UNL     1     128.133 136.059 154.941  1.00  0.00     0.027 A 
ATOM     10  C   UNL     1     126.529 138.338 154.805  1.00  0.00     0.022 A 
ATOM     11  C   UNL     1     126.738 135.940 154.953  1.00  0.00     0.022 A 
ATOM     12  C   UNL     1     125.943 137.079 154.885  1.00  0.00     0.041 A 
ATOM     13  Cl  UNL     1     124.229 136.932 154.898  1.00  0.00    -0.084 Cl
ENDBRANCH   5   7
ENDBRANCH   2   3
BRANCH   2  14
ATOM     14  C   UNL     1     132.688 138.902 153.911  1.00  0.00     0.001 C 
ATOM     15  C   UNL     1     134.166 139.315 153.772  1.00  0.00     0.005 C 
ATOM     16  C   UNL     1     131.940 139.315 152.624  1.00  0.00     0.005 C 
ATOM     17  C   UNL     1     134.833 138.742 152.519  1.00  0.00     0.009 C 
ATOM     18  C   UNL     1     132.573 138.728 151.361  1.00  0.00     0.009 C 
ATOM     19  C   UNL     1     134.061 139.120 151.243  1.00  0.00     0.020 C 
BRANCH  19  20
ATOM     20  C   UNL     1     134.774 138.573 150.008  1.00  0.00    -0.034 A 
ATOM     21  C   UNL     1     135.850 137.689 150.156  1.00  0.00     0.025 A 
ATOM     22  C   UNL     1     134.407 138.967 148.685  1.00  0.00     0.007 A 
ATOM     23  C   UNL     1     136.486 137.203 149.030  1.00  0.00     0.112 A 
ATOM     24  C   UNL     1     133.377 139.889 148.376  1.00  0.00     0.049 A 
ATOM     25  C   UNL     1     135.133 138.399 147.604  1.00  0.00     0.071 A 
ATOM     26  N   UNL     1     136.142 137.536 147.772  1.00  0.00    -0.256 NA
ATOM     27  C   UNL     1     133.078 140.215 147.058  1.00  0.00     0.123 A 
ATOM     28  C   UNL     1     134.804 138.747 146.299  1.00  0.00     0.032 A 
ATOM     29  C   UNL     1     133.781 139.649 146.012  1.00  0.00     0.041 A 
ATOM     30  F   UNL     1     132.098 141.090 146.802  1.00  0.00    -0.207 F 
ENDBRANCH  19  20
ENDBRANCH   2  14
TORSDOF 4
ENDMDL
