MODEL 1
REMARK VINA RESULT:    -6.494      0.000      0.000
REMARK INTER + INTRA:         -13.783
REMARK INTER:                 -11.049
REMARK INTRA:                  -2.734
REMARK UNBOUND:                -2.734
REMARK SMILES C=C1/C(=C\C=C2/CCC[C@]3(C)[C@@H]([C@H](C)CCCC(C)(C)O)CC[C@@H]23)C[C@@H](O)[C@@H](OCCCO)[C@@H]1O
REMARK SMILES IDX 5 1 6 2 7 3 8 4 9 5 10 6 11 7 12 8 22 9 23 10 24 11 4 12
REMARK SMILES IDX 1 13 2 14 3 15 34 16 25 17 28 18 26 19 35 20 29 22 30 23
REMARK SMILES IDX 31 24 32 25 33 26 27 28 13 30 14 31 15 32 16 33 17 34 18 35
REMARK SMILES IDX 19 36 20 37 21 38
REMARK H PARENT 35 21 33 27 27 29 21 39
ROOT
ATOM      1  C   UNL     1     135.310 136.787 149.344  1.00  0.00    -0.000 C 
ATOM      2  C   UNL     1     135.373 137.556 150.449  1.00  0.00    -0.067 C 
ATOM      3  C   UNL     1     136.109 138.879 150.570  1.00  0.00     0.031 C 
ATOM      4  C   UNL     1     135.224 139.991 151.144  1.00  0.00     0.005 C 
ATOM      5  C   UNL     1     134.475 139.577 152.421  1.00  0.00     0.008 C 
ATOM      6  C   UNL     1     133.688 138.259 152.238  1.00  0.00    -0.023 C 
ATOM      7  C   UNL     1     132.523 138.464 151.239  1.00  0.00     0.012 C 
ATOM      8  C   UNL     1     133.192 137.593 153.561  1.00  0.00    -0.002 C 
ATOM      9  C   UNL     1     133.111 136.082 153.191  1.00  0.00     0.005 C 
ATOM     10  C   UNL     1     133.936 135.875 151.917  1.00  0.00     0.009 C 
ATOM     11  C   UNL     1     134.705 137.183 151.758  1.00  0.00     0.021 C 
ENDROOT
BRANCH   1  12
ATOM     12  C   UNL     1     135.945 137.044 148.066  1.00  0.00     0.004 C 
ATOM     13  C   UNL     1     133.435 138.900 147.661  1.00  0.00     0.015 C 
ATOM     14  C   UNL     1     133.978 138.002 146.822  1.00  0.00    -0.021 C 
ATOM     15  C   UNL     1     135.364 137.543 146.955  1.00  0.00    -0.040 C 
ATOM     16  C   UNL     1     133.298 137.452 145.580  1.00  0.00     0.175 C 
ATOM     17  C   UNL     1     136.165 137.623 145.666  1.00  0.00     0.070 C 
ATOM     18  C   UNL     1     134.040 137.854 144.275  1.00  0.00     0.180 C 
ATOM     19  C   UNL     1     135.448 138.419 144.566  1.00  0.00     0.150 C 
BRANCH  16  20
ATOM     20  O   UNL     1     131.935 137.881 145.496  1.00  0.00    -0.386 OA
ATOM     21  H   UNL     1     131.522 137.618 146.337  1.00  0.00     0.211 HD
ENDBRANCH  16  20
BRANCH  18  22
ATOM     22  O   UNL     1     134.233 136.696 143.418  1.00  0.00    -0.372 OA
BRANCH  22  23
ATOM     23  C   UNL     1     133.065 135.874 143.341  1.00  0.00     0.163 C 
BRANCH  23  24
ATOM     24  C   UNL     1     133.498 134.420 143.188  1.00  0.00     0.057 C 
BRANCH  24  25
ATOM     25  C   UNL     1     133.773 133.759 144.534  1.00  0.00     0.158 C 
BRANCH  25  26
ATOM     26  O   UNL     1     134.833 134.425 145.209  1.00  0.00    -0.396 OA
ATOM     27  H   UNL     1     135.595 134.447 144.605  1.00  0.00     0.210 HD
ENDBRANCH  25  26
ENDBRANCH  24  25
ENDBRANCH  23  24
ENDBRANCH  22  23
ENDBRANCH  18  22
BRANCH  19  28
ATOM     28  O   UNL     1     136.238 138.402 143.370  1.00  0.00    -0.390 OA
ATOM     29  H   UNL     1     136.720 139.254 143.376  1.00  0.00     0.211 HD
ENDBRANCH  19  28
ENDBRANCH   1  12
BRANCH   8  30
ATOM     30  C   UNL     1     131.878 138.095 154.235  1.00  0.00    -0.011 C 
ATOM     31  C   UNL     1     132.135 138.736 155.603  1.00  0.00     0.008 C 
BRANCH  30  32
ATOM     32  C   UNL     1     130.866 136.924 154.376  1.00  0.00     0.004 C 
BRANCH  32  33
ATOM     33  C   UNL     1     129.398 137.369 154.451  1.00  0.00     0.003 C 
BRANCH  33  34
ATOM     34  C   UNL     1     128.455 136.165 154.339  1.00  0.00     0.034 C 
BRANCH  34  35
ATOM     35  C   UNL     1     127.422 136.024 155.476  1.00  0.00     0.059 C 
ATOM     36  C   UNL     1     126.016 135.735 154.949  1.00  0.00     0.042 C 
ATOM     37  C   UNL     1     127.401 137.241 156.404  1.00  0.00     0.042 C 
BRANCH  35  38
ATOM     38  O   UNL     1     127.806 134.887 156.262  1.00  0.00    -0.390 OA
ATOM     39  H   UNL     1     128.618 135.116 156.744  1.00  0.00     0.211 HD
ENDBRANCH  35  38
ENDBRANCH  34  35
ENDBRANCH  33  34
ENDBRANCH  32  33
ENDBRANCH  30  32
ENDBRANCH   8  30
TORSDOF 14
ENDMDL
