MODEL 1
REMARK VINA RESULT:    -7.454      0.000      0.000
REMARK INTER + INTRA:         -10.217
REMARK INTER:                  -9.198
REMARK INTRA:                  -1.019
REMARK UNBOUND:                -1.019
REMARK SMILES C[C@@H](C(=O)Nc1ccc(Cl)cc1)[C@H]1CC[C@@H](c2ccnc3ccc(F)cc32)CC1
REMARK SMILES IDX 1 1 2 2 3 3 4 4 5 5 6 7 7 8 12 9 8 10 11 11 9 12 10 13 13 14
REMARK SMILES IDX 29 15 14 16 28 17 15 18 16 19 17 20 18 21 27 22 19 23 26 24
REMARK SMILES IDX 21 25 20 26 24 27 22 28 23 29 25 30
REMARK H PARENT 5 6
ROOT
ATOM      1  C   UNL     1     135.528 136.152 151.414  1.00  0.00     0.018 C 
ATOM      2  C   UNL     1     135.081 137.515 150.873  1.00  0.00     0.079 C 
ENDROOT
BRANCH   2   3
ATOM      3  C   UNL     1     135.960 137.901 149.675  1.00  0.00     0.227 C 
ATOM      4  O   UNL     1     136.918 138.650 149.841  1.00  0.00    -0.274 OA
ATOM      5  N   UNL     1     135.552 137.348 148.475  1.00  0.00    -0.326 N 
ATOM      6  H   UNL     1     134.743 136.744 148.503  1.00  0.00     0.169 HD
BRANCH   5   7
ATOM      7  C   UNL     1     136.137 137.526 147.204  1.00  0.00     0.041 A 
ATOM      8  C   UNL     1     135.508 138.428 146.334  1.00  0.00     0.027 A 
ATOM      9  C   UNL     1     137.289 136.865 146.772  1.00  0.00     0.027 A 
ATOM     10  C   UNL     1     136.023 138.663 145.054  1.00  0.00     0.022 A 
ATOM     11  C   UNL     1     137.806 137.100 145.492  1.00  0.00     0.022 A 
ATOM     12  C   UNL     1     137.172 137.997 144.640  1.00  0.00     0.041 A 
ATOM     13  Cl  UNL     1     137.807 138.285 143.067  1.00  0.00    -0.084 Cl
ENDBRANCH   5   7
ENDBRANCH   2   3
BRANCH   2  14
ATOM     14  C   UNL     1     133.563 137.568 150.527  1.00  0.00     0.001 C 
ATOM     15  C   UNL     1     132.754 136.434 151.184  1.00  0.00     0.005 C 
ATOM     16  C   UNL     1     132.915 138.917 150.906  1.00  0.00     0.005 C 
ATOM     17  C   UNL     1     132.621 136.594 152.700  1.00  0.00     0.009 C 
ATOM     18  C   UNL     1     132.799 139.111 152.419  1.00  0.00     0.009 C 
ATOM     19  C   UNL     1     132.013 137.956 153.075  1.00  0.00     0.020 C 
BRANCH  19  20
ATOM     20  C   UNL     1     131.852 138.069 154.590  1.00  0.00    -0.034 A 
ATOM     21  C   UNL     1     132.974 137.959 155.422  1.00  0.00     0.025 A 
ATOM     22  C   UNL     1     130.575 138.241 155.205  1.00  0.00     0.007 A 
ATOM     23  C   UNL     1     132.812 138.061 156.791  1.00  0.00     0.112 A 
ATOM     24  C   UNL     1     129.347 138.318 154.503  1.00  0.00     0.049 A 
ATOM     25  C   UNL     1     130.534 138.335 156.622  1.00  0.00     0.071 A 
ATOM     26  N   UNL     1     131.625 138.252 157.394  1.00  0.00    -0.256 NA
ATOM     27  C   UNL     1     128.145 138.493 155.179  1.00  0.00     0.123 A 
ATOM     28  C   UNL     1     129.314 138.512 157.263  1.00  0.00     0.032 A 
ATOM     29  C   UNL     1     128.115 138.595 156.556  1.00  0.00     0.041 A 
ATOM     30  F   UNL     1     127.002 138.561 154.484  1.00  0.00    -0.207 F 
ENDBRANCH  19  20
ENDBRANCH   2  14
TORSDOF 4
ENDMDL
