MODEL 1
REMARK VINA RESULT:    -7.858      0.000      0.000
REMARK INTER + INTRA:         -11.934
REMARK INTER:                 -10.614
REMARK INTRA:                  -1.320
REMARK UNBOUND:                -1.320
REMARK SMILES Fc1ccc(-n2cc(CCCCN3CCC4(CC3)OCc3ccccc34)c3ccccc32)cc1
REMARK SMILES IDX 9 1 8 2 6 3 7 4 32 5 31 6 27 7 30 8 28 9 29 10 5 11 2 12
REMARK SMILES IDX 3 13 34 14 4 15 33 16 1 17 10 18 11 19 12 20 13 21 14 22
REMARK SMILES IDX 18 23 15 24 17 25 16 26 19 27 26 28 20 29 25 30 21 31 24 32
REMARK SMILES IDX 22 33 23 34
REMARK H PARENT
ROOT
ATOM      1  C   UNL     1     132.961 138.517 154.857  1.00  0.00     0.038 C 
ENDROOT
BRANCH   1   2
ATOM      2  C   UNL     1     131.648 137.819 154.685  1.00  0.00    -0.022 A 
ATOM      3  N   UNL     1     129.437 137.364 154.779  1.00  0.00    -0.316 N 
ATOM      4  C   UNL     1     130.434 138.227 155.194  1.00  0.00     0.096 A 
ATOM      5  C   UNL     1     130.039 136.311 154.086  1.00  0.00     0.053 A 
ATOM      6  C   UNL     1     129.527 135.096 153.582  1.00  0.00     0.027 A 
ATOM      7  C   UNL     1     131.406 136.603 153.982  1.00  0.00     0.003 A 
ATOM      8  C   UNL     1     130.387 134.224 152.906  1.00  0.00     0.002 A 
ATOM      9  C   UNL     1     132.251 135.710 153.287  1.00  0.00     0.010 A 
ATOM     10  C   UNL     1     131.730 134.532 152.747  1.00  0.00     0.001 A 
BRANCH   3  11
ATOM     11  C   UNL     1     128.045 137.572 155.030  1.00  0.00     0.046 A 
ATOM     12  C   UNL     1     125.334 137.979 155.564  1.00  0.00     0.123 A 
ATOM     13  C   UNL     1     126.037 138.922 154.823  1.00  0.00     0.041 A 
ATOM     14  C   UNL     1     125.965 136.843 156.055  1.00  0.00     0.041 A 
ATOM     15  C   UNL     1     127.394 138.722 154.558  1.00  0.00     0.029 A 
ATOM     16  C   UNL     1     127.323 136.640 155.795  1.00  0.00     0.029 A 
ATOM     17  F   UNL     1     124.033 138.174 155.818  1.00  0.00    -0.207 F 
ENDBRANCH   3  11
ENDBRANCH   1   2
BRANCH   1  18
ATOM     18  C   UNL     1     133.160 139.628 153.821  1.00  0.00     0.006 C 
BRANCH  18  19
ATOM     19  C   UNL     1     134.474 139.510 153.042  1.00  0.00     0.016 C 
BRANCH  19  20
ATOM     20  C   UNL     1     134.418 138.467 151.916  1.00  0.00     0.084 C 
BRANCH  20  21
ATOM     21  N   UNL     1     133.756 138.975 150.699  1.00  0.00    -0.303 NA
ATOM     22  C   UNL     1     133.492 137.896 149.731  1.00  0.00     0.088 C 
ATOM     23  C   UNL     1     134.603 140.008 150.072  1.00  0.00     0.088 C 
ATOM     24  C   UNL     1     132.758 138.424 148.496  1.00  0.00     0.056 C 
ATOM     25  C   UNL     1     133.915 140.631 148.860  1.00  0.00     0.056 C 
ATOM     26  C   UNL     1     133.533 139.565 147.833  1.00  0.00     0.096 C 
ATOM     27  O   UNL     1     134.761 139.031 147.252  1.00  0.00    -0.365 OA
ATOM     28  C   UNL     1     132.800 140.125 146.652  1.00  0.00    -0.011 A 
ATOM     29  C   UNL     1     134.617 138.900 145.820  1.00  0.00     0.197 C 
ATOM     30  C   UNL     1     131.649 140.900 146.605  1.00  0.00     0.007 A 
ATOM     31  C   UNL     1     133.442 139.736 145.484  1.00  0.00    -0.016 A 
ATOM     32  C   UNL     1     131.154 141.284 145.357  1.00  0.00     0.000 A 
ATOM     33  C   UNL     1     132.959 140.104 144.238  1.00  0.00     0.006 A 
ATOM     34  C   UNL     1     131.806 140.888 144.179  1.00  0.00     0.000 A 
ENDBRANCH  20  21
ENDBRANCH  19  20
ENDBRANCH  18  19
ENDBRANCH   1  18
TORSDOF 6
ENDMDL
