MODEL 1
REMARK VINA RESULT:    -7.452      0.000      0.000
REMARK INTER + INTRA:         -10.212
REMARK INTER:                  -9.195
REMARK INTRA:                  -1.017
REMARK UNBOUND:                -1.017
REMARK SMILES C[C@@H](C(=O)Nc1ccc(Cl)cc1)[C@H]1CC[C@@H](c2ccnc3ccc(F)cc32)CC1
REMARK SMILES IDX 1 1 2 2 3 3 4 4 5 5 6 7 7 8 12 9 8 10 11 11 9 12 10 13 13 14
REMARK SMILES IDX 29 15 14 16 28 17 15 18 16 19 17 20 18 21 27 22 19 23 26 24
REMARK SMILES IDX 21 25 20 26 24 27 22 28 23 29 25 30
REMARK H PARENT 5 6
ROOT
ATOM      1  C   UNL     1     135.478 136.109 151.393  1.00  0.00     0.018 C 
ATOM      2  C   UNL     1     135.074 137.492 150.871  1.00  0.00     0.079 C 
ENDROOT
BRANCH   2   3
ATOM      3  C   UNL     1     135.966 137.869 149.680  1.00  0.00     0.227 C 
ATOM      4  O   UNL     1     136.944 138.588 149.858  1.00  0.00    -0.274 OA
ATOM      5  N   UNL     1     135.545 137.343 148.473  1.00  0.00    -0.326 N 
ATOM      6  H   UNL     1     134.719 136.761 148.491  1.00  0.00     0.169 HD
BRANCH   5   7
ATOM      7  C   UNL     1     136.137 137.520 147.205  1.00  0.00     0.041 A 
ATOM      8  C   UNL     1     135.513 138.421 146.330  1.00  0.00     0.027 A 
ATOM      9  C   UNL     1     137.292 136.860 146.780  1.00  0.00     0.027 A 
ATOM     10  C   UNL     1     136.035 138.656 145.054  1.00  0.00     0.022 A 
ATOM     11  C   UNL     1     137.817 137.094 145.503  1.00  0.00     0.022 A 
ATOM     12  C   UNL     1     137.186 137.990 144.646  1.00  0.00     0.041 A 
ATOM     13  Cl  UNL     1     137.831 138.277 143.077  1.00  0.00    -0.084 Cl
ENDBRANCH   5   7
ENDBRANCH   2   3
BRANCH   2  14
ATOM     14  C   UNL     1     133.559 137.599 150.525  1.00  0.00     0.001 C 
ATOM     15  C   UNL     1     132.714 136.482 151.167  1.00  0.00     0.005 C 
ATOM     16  C   UNL     1     132.953 138.962 150.922  1.00  0.00     0.005 C 
ATOM     17  C   UNL     1     132.585 136.626 152.685  1.00  0.00     0.009 C 
ATOM     18  C   UNL     1     132.842 139.140 152.437  1.00  0.00     0.009 C 
ATOM     19  C   UNL     1     132.019 138.002 153.078  1.00  0.00     0.020 C 
BRANCH  19  20
ATOM     20  C   UNL     1     131.861 138.099 154.594  1.00  0.00    -0.034 A 
ATOM     21  C   UNL     1     132.984 137.989 155.423  1.00  0.00     0.025 A 
ATOM     22  C   UNL     1     130.583 138.258 155.213  1.00  0.00     0.007 A 
ATOM     23  C   UNL     1     132.824 138.077 156.792  1.00  0.00     0.112 A 
ATOM     24  C   UNL     1     129.353 138.333 154.514  1.00  0.00     0.049 A 
ATOM     25  C   UNL     1     130.545 138.338 156.631  1.00  0.00     0.071 A 
ATOM     26  N   UNL     1     131.637 138.255 157.400  1.00  0.00    -0.256 NA
ATOM     27  C   UNL     1     128.151 138.495 155.193  1.00  0.00     0.123 A 
ATOM     28  C   UNL     1     129.324 138.502 157.275  1.00  0.00     0.032 A 
ATOM     29  C   UNL     1     128.124 138.584 156.571  1.00  0.00     0.041 A 
ATOM     30  F   UNL     1     127.007 138.562 154.501  1.00  0.00    -0.207 F 
ENDBRANCH  19  20
ENDBRANCH   2  14
TORSDOF 4
ENDMDL
