MODEL 1
REMARK VINA RESULT:    -8.284      0.000      0.000
REMARK INTER + INTRA:          -8.284
REMARK INTER:                  -8.284
REMARK INTRA:                   0.000
REMARK UNBOUND:                 0.000
REMARK SMILES NC1=NC[C@@H]2c3ccccc3Cc3ccccc3N12
REMARK SMILES IDX 1 1 2 2 3 3 4 4 5 5 6 6 7 7 8 8 9 9 10 10 11 11 12 12 13 13
REMARK SMILES IDX 14 14 15 15 16 16 17 17 18 18 19 19
REMARK H PARENT 1 20 1 21
ROOT
ATOM      1  N   UNL     1     134.643 135.328 151.961  1.00  0.00    -0.369 N 
ATOM      2  C   UNL     1     133.368 135.273 152.405  1.00  0.00     0.196 C 
ATOM      3  N   UNL     1     132.626 134.228 152.134  1.00  0.00    -0.250 NA
ATOM      4  C   UNL     1     131.340 134.564 152.807  1.00  0.00     0.176 C 
ATOM      5  C   UNL     1     131.684 135.627 153.878  1.00  0.00     0.143 C 
ATOM      6  C   UNL     1     130.573 136.553 154.329  1.00  0.00    -0.020 A 
ATOM      7  C   UNL     1     129.255 136.473 153.850  1.00  0.00     0.006 A 
ATOM      8  C   UNL     1     128.259 137.319 154.345  1.00  0.00     0.000 A 
ATOM      9  C   UNL     1     128.557 138.252 155.331  1.00  0.00     0.000 A 
ATOM     10  C   UNL     1     129.853 138.343 155.829  1.00  0.00     0.004 A 
ATOM     11  C   UNL     1     130.860 137.495 155.341  1.00  0.00    -0.038 A 
ATOM     12  C   UNL     1     132.276 137.621 155.852  1.00  0.00     0.073 C 
ATOM     13  C   UNL     1     133.193 138.165 154.782  1.00  0.00    -0.020 A 
ATOM     14  C   UNL     1     133.814 139.410 155.036  1.00  0.00     0.006 A 
ATOM     15  C   UNL     1     134.626 140.018 154.086  1.00  0.00     0.000 A 
ATOM     16  C   UNL     1     134.814 139.400 152.862  1.00  0.00     0.002 A 
ATOM     17  C   UNL     1     134.207 138.166 152.606  1.00  0.00     0.027 A 
ATOM     18  C   UNL     1     133.407 137.492 153.556  1.00  0.00     0.048 A 
ATOM     19  N   UNL     1     132.858 136.242 153.238  1.00  0.00    -0.303 N 
ATOM     20  H   UNL     1     135.295 135.675 152.654  1.00  0.00     0.159 HD
ATOM     21  H   UNL     1     134.930 134.435 151.578  1.00  0.00     0.159 HD
ENDROOT
TORSDOF 0
ENDMDL
