MODEL 1
REMARK VINA RESULT:    -8.057      0.000      0.000
REMARK INTER + INTRA:          -8.057
REMARK INTER:                  -8.057
REMARK INTRA:                   0.000
REMARK UNBOUND:                 0.000
REMARK SMILES NC1=NC[C@@H]2c3ccccc3Cc3ccccc3N12
REMARK SMILES IDX 1 1 2 2 3 3 4 4 5 5 6 6 7 7 8 8 9 9 10 10 11 11 12 12 13 13
REMARK SMILES IDX 14 14 15 15 16 16 17 17 18 18 19 19
REMARK H PARENT 1 20 1 21
ROOT
ATOM      1  N   UNL     1     134.511 135.011 151.601  1.00  0.00    -0.369 N 
ATOM      2  C   UNL     1     133.290 135.007 152.180  1.00  0.00     0.196 C 
ATOM      3  N   UNL     1     132.551 133.927 152.138  1.00  0.00    -0.250 NA
ATOM      4  C   UNL     1     131.332 134.343 152.890  1.00  0.00     0.176 C 
ATOM      5  C   UNL     1     131.759 135.552 153.758  1.00  0.00     0.143 C 
ATOM      6  C   UNL     1     130.677 136.521 154.188  1.00  0.00    -0.020 A 
ATOM      7  C   UNL     1     129.320 136.361 153.866  1.00  0.00     0.006 A 
ATOM      8  C   UNL     1     128.359 137.259 154.339  1.00  0.00     0.000 A 
ATOM      9  C   UNL     1     128.733 138.327 155.147  1.00  0.00     0.000 A 
ATOM     10  C   UNL     1     130.072 138.500 155.487  1.00  0.00     0.004 A 
ATOM     11  C   UNL     1     131.043 137.602 155.020  1.00  0.00    -0.038 A 
ATOM     12  C   UNL     1     132.501 137.813 155.357  1.00  0.00     0.073 C 
ATOM     13  C   UNL     1     133.290 138.208 154.130  1.00  0.00    -0.020 A 
ATOM     14  C   UNL     1     133.902 139.482 154.139  1.00  0.00     0.006 A 
ATOM     15  C   UNL     1     134.597 139.956 153.032  1.00  0.00     0.000 A 
ATOM     16  C   UNL     1     134.673 139.171 151.895  1.00  0.00     0.002 A 
ATOM     17  C   UNL     1     134.074 137.908 151.881  1.00  0.00     0.027 A 
ATOM     18  C   UNL     1     133.393 137.369 152.996  1.00  0.00     0.048 A 
ATOM     19  N   UNL     1     132.845 136.080 152.918  1.00  0.00    -0.303 N 
ATOM     20  H   UNL     1     135.222 135.459 152.165  1.00  0.00     0.159 HD
ATOM     21  H   UNL     1     134.779 134.075 151.320  1.00  0.00     0.159 HD
ENDROOT
TORSDOF 0
ENDMDL
