MODEL 1
REMARK VINA RESULT:    -7.147      0.000      0.000
REMARK INTER + INTRA:         -12.247
REMARK INTER:                  -9.863
REMARK INTRA:                  -2.384
REMARK UNBOUND:                -2.384
REMARK SMILES O=C(O)c1ccc(N2C(=O)/C(=C/c3ccc(-c4ccc([N+](=O)[O-])cc4)o3)C=C2c2ccccc2)cc1
REMARK SMILES IDX 8 1 9 2 10 3 11 4 12 5 27 6 28 7 7 8 4 9 5 10 36 11 6 12
REMARK SMILES IDX 35 13 2 14 1 15 3 16 29 18 30 19 34 20 31 21 33 22 32 23
REMARK SMILES IDX 13 24 14 25 26 26 15 27 16 28 17 29 18 30 25 31 19 32 24 33
REMARK SMILES IDX 20 34 21 35 22 36 23 37
REMARK H PARENT 3 17
ROOT
ATOM      1  N   UNL     1     134.226 137.088 149.013  1.00  0.00    -0.276 N 
ATOM      2  C   UNL     1     134.275 136.273 150.175  1.00  0.00     0.263 C 
ATOM      3  O   UNL     1     134.879 135.242 150.409  1.00  0.00    -0.268 OA
ATOM      4  C   UNL     1     133.400 136.990 151.162  1.00  0.00     0.046 C 
ATOM      5  C   UNL     1     133.224 136.504 152.398  1.00  0.00     0.061 C 
ATOM      6  C   UNL     1     132.905 138.168 150.507  1.00  0.00     0.041 C 
ATOM      7  C   UNL     1     133.404 138.191 149.261  1.00  0.00     0.057 C 
ENDROOT
BRANCH   1   8
ATOM      8  C   UNL     1     134.991 136.779 147.844  1.00  0.00     0.049 A 
ATOM      9  C   UNL     1     136.525 136.171 145.534  1.00  0.00     0.060 A 
ATOM     10  C   UNL     1     137.099 136.862 146.602  1.00  0.00     0.018 A 
ATOM     11  C   UNL     1     135.184 135.791 145.612  1.00  0.00     0.018 A 
ATOM     12  C   UNL     1     136.337 137.164 147.739  1.00  0.00     0.027 A 
ATOM     13  C   UNL     1     134.429 136.096 146.753  1.00  0.00     0.027 A 
BRANCH   9  14
ATOM     14  C   UNL     1     137.366 135.871 144.350  1.00  0.00     0.335 C 
ATOM     15  O   UNL     1     137.284 136.408 143.262  1.00  0.00    -0.246 OA
BRANCH  14  16
ATOM     16  O   UNL     1     138.277 134.910 144.587  1.00  0.00    -0.478 OA
ATOM     17  H   UNL     1     139.126 135.328 144.333  1.00  0.00     0.297 HD
ENDBRANCH  14  16
ENDBRANCH   9  14
ENDBRANCH   1   8
BRANCH   7  18
ATOM     18  C   UNL     1     132.982 139.204 148.292  1.00  0.00    -0.001 A 
ATOM     19  C   UNL     1     133.663 140.427 148.204  1.00  0.00     0.010 A 
ATOM     20  C   UNL     1     131.915 138.954 147.416  1.00  0.00     0.010 A 
ATOM     21  C   UNL     1     133.273 141.388 147.269  1.00  0.00     0.001 A 
ATOM     22  C   UNL     1     131.527 139.917 146.483  1.00  0.00     0.001 A 
ATOM     23  C   UNL     1     132.205 141.133 146.411  1.00  0.00     0.000 A 
ENDBRANCH   7  18
BRANCH   5  24
ATOM     24  C   UNL     1     132.410 137.094 153.401  1.00  0.00     0.128 A 
ATOM     25  C   UNL     1     132.718 137.917 154.477  1.00  0.00     0.051 A 
ATOM     26  O   UNL     1     131.041 136.940 153.392  1.00  0.00    -0.457 OA
ATOM     27  C   UNL     1     131.512 138.237 155.146  1.00  0.00     0.051 A 
ATOM     28  C   UNL     1     130.501 137.615 154.447  1.00  0.00     0.134 A 
BRANCH  28  29
ATOM     29  C   UNL     1     129.048 137.539 154.589  1.00  0.00     0.018 A 
ATOM     30  C   UNL     1     128.382 136.301 154.587  1.00  0.00     0.019 A 
ATOM     31  C   UNL     1     128.284 138.708 154.732  1.00  0.00     0.019 A 
ATOM     32  C   UNL     1     126.990 136.227 154.724  1.00  0.00     0.086 A 
ATOM     33  C   UNL     1     126.891 138.648 154.870  1.00  0.00     0.086 A 
ATOM     34  C   UNL     1     126.250 137.405 154.865  1.00  0.00     0.269 A 
BRANCH  34  35
ATOM     35  N   UNL     1     124.789 137.336 155.009  1.00  0.00     0.062 N 
ATOM     36  O   UNL     1     124.178 136.517 154.308  1.00  0.00    -0.258 OA
ATOM     37  O   UNL     1     124.255 138.101 155.826  1.00  0.00    -0.258 OA
ENDBRANCH  34  35
ENDBRANCH  28  29
ENDBRANCH   5  24
TORSDOF 7
ENDMDL
