MODEL 1
REMARK VINA RESULT:    -7.168      0.000      0.000
REMARK INTER + INTRA:         -12.270
REMARK INTER:                  -9.892
REMARK INTRA:                  -2.377
REMARK UNBOUND:                -2.377
REMARK SMILES O=C(O)c1ccc(N2C(=O)/C(=C/c3ccc(-c4ccc([N+](=O)[O-])cc4)o3)C=C2c2ccccc2)cc1
REMARK SMILES IDX 8 1 9 2 10 3 11 4 12 5 27 6 28 7 7 8 4 9 5 10 36 11 6 12
REMARK SMILES IDX 35 13 2 14 1 15 3 16 29 18 30 19 34 20 31 21 33 22 32 23
REMARK SMILES IDX 13 24 14 25 26 26 15 27 16 28 17 29 18 30 25 31 19 32 24 33
REMARK SMILES IDX 20 34 21 35 22 36 23 37
REMARK H PARENT 3 17
ROOT
ATOM      1  N   UNL     1     134.232 137.127 149.018  1.00  0.00    -0.276 N 
ATOM      2  C   UNL     1     134.287 136.325 150.188  1.00  0.00     0.263 C 
ATOM      3  O   UNL     1     134.901 135.301 150.434  1.00  0.00    -0.268 OA
ATOM      4  C   UNL     1     133.404 137.043 151.167  1.00  0.00     0.046 C 
ATOM      5  C   UNL     1     133.231 136.569 152.408  1.00  0.00     0.061 C 
ATOM      6  C   UNL     1     132.897 138.209 150.499  1.00  0.00     0.041 C 
ATOM      7  C   UNL     1     133.398 138.224 149.254  1.00  0.00     0.057 C 
ENDROOT
BRANCH   1   8
ATOM      8  C   UNL     1     135.001 136.813 147.853  1.00  0.00     0.049 A 
ATOM      9  C   UNL     1     136.543 136.195 145.552  1.00  0.00     0.060 A 
ATOM     10  C   UNL     1     137.113 136.892 146.618  1.00  0.00     0.018 A 
ATOM     11  C   UNL     1     135.203 135.814 145.627  1.00  0.00     0.018 A 
ATOM     12  C   UNL     1     136.346 137.199 147.751  1.00  0.00     0.027 A 
ATOM     13  C   UNL     1     134.443 136.124 146.764  1.00  0.00     0.027 A 
BRANCH   9  14
ATOM     14  C   UNL     1     137.389 135.890 144.372  1.00  0.00     0.335 C 
ATOM     15  O   UNL     1     137.395 136.504 143.321  1.00  0.00    -0.246 OA
BRANCH  14  16
ATOM     16  O   UNL     1     138.192 134.830 144.566  1.00  0.00    -0.478 OA
ATOM     17  H   UNL     1     137.632 134.204 145.069  1.00  0.00     0.297 HD
ENDBRANCH  14  16
ENDBRANCH   9  14
ENDBRANCH   1   8
BRANCH   7  18
ATOM     18  C   UNL     1     132.968 139.223 148.274  1.00  0.00    -0.001 A 
ATOM     19  C   UNL     1     133.643 140.447 148.166  1.00  0.00     0.010 A 
ATOM     20  C   UNL     1     131.897 138.957 147.407  1.00  0.00     0.010 A 
ATOM     21  C   UNL     1     133.245 141.394 147.221  1.00  0.00     0.001 A 
ATOM     22  C   UNL     1     131.500 139.906 146.463  1.00  0.00     0.001 A 
ATOM     23  C   UNL     1     132.174 141.124 146.372  1.00  0.00     0.000 A 
ENDBRANCH   7  18
BRANCH   5  24
ATOM     24  C   UNL     1     132.410 137.161 153.404  1.00  0.00     0.128 A 
ATOM     25  C   UNL     1     132.706 138.014 154.460  1.00  0.00     0.051 A 
ATOM     26  O   UNL     1     131.045 136.975 153.409  1.00  0.00    -0.457 OA
ATOM     27  C   UNL     1     131.497 138.320 155.130  1.00  0.00     0.051 A 
ATOM     28  C   UNL     1     130.497 137.660 154.452  1.00  0.00     0.134 A 
BRANCH  28  29
ATOM     29  C   UNL     1     129.047 137.553 154.607  1.00  0.00     0.018 A 
ATOM     30  C   UNL     1     128.245 138.698 154.748  1.00  0.00     0.019 A 
ATOM     31  C   UNL     1     128.422 136.295 154.617  1.00  0.00     0.019 A 
ATOM     32  C   UNL     1     126.856 138.597 154.895  1.00  0.00     0.086 A 
ATOM     33  C   UNL     1     127.034 136.179 154.764  1.00  0.00     0.086 A 
ATOM     34  C   UNL     1     126.256 137.334 154.903  1.00  0.00     0.269 A 
BRANCH  34  35
ATOM     35  N   UNL     1     124.800 137.218 155.057  1.00  0.00     0.062 N 
ATOM     36  O   UNL     1     124.266 137.844 155.984  1.00  0.00    -0.258 OA
ATOM     37  O   UNL     1     124.190 136.502 154.249  1.00  0.00    -0.258 OA
ENDBRANCH  34  35
ENDBRANCH  28  29
ENDBRANCH   5  24
TORSDOF 7
ENDMDL
