MODEL 1
REMARK VINA RESULT:    -8.150      0.000      0.000
REMARK INTER + INTRA:         -12.576
REMARK INTER:                 -11.008
REMARK INTRA:                  -1.567
REMARK UNBOUND:                -1.567
REMARK SMILES Fc1ccc(-n2cc(CCCCN3CCC4(CC3)OCc3ccccc34)c3ccccc32)cc1
REMARK SMILES IDX 9 1 8 2 6 3 7 4 32 5 31 6 27 7 30 8 28 9 29 10 5 11 2 12
REMARK SMILES IDX 3 13 34 14 4 15 33 16 1 17 10 18 11 19 12 20 13 21 14 22
REMARK SMILES IDX 18 23 15 24 17 25 16 26 19 27 26 28 20 29 25 30 21 31 24 32
REMARK SMILES IDX 22 33 23 34
REMARK H PARENT
ROOT
ATOM      1  C   UNL     1     133.327 138.319 155.896  1.00  0.00     0.038 C 
ENDROOT
BRANCH   1   2
ATOM      2  C   UNL     1     132.029 137.752 155.414  1.00  0.00    -0.022 A 
ATOM      3  N   UNL     1     129.812 137.418 155.130  1.00  0.00    -0.316 N 
ATOM      4  C   UNL     1     130.770 138.112 155.845  1.00  0.00     0.096 A 
ATOM      5  C   UNL     1     130.469 136.504 154.303  1.00  0.00     0.053 A 
ATOM      6  C   UNL     1     129.994 135.458 153.484  1.00  0.00     0.027 A 
ATOM      7  C   UNL     1     131.846 136.731 154.435  1.00  0.00     0.003 A 
ATOM      8  C   UNL     1     130.909 134.702 152.744  1.00  0.00     0.002 A 
ATOM      9  C   UNL     1     132.749 135.960 153.671  1.00  0.00     0.010 A 
ATOM     10  C   UNL     1     132.271 134.958 152.824  1.00  0.00     0.001 A 
BRANCH   3  11
ATOM     11  C   UNL     1     128.406 137.648 155.246  1.00  0.00     0.046 A 
ATOM     12  C   UNL     1     125.655 138.094 155.428  1.00  0.00     0.123 A 
ATOM     13  C   UNL     1     126.216 136.993 156.064  1.00  0.00     0.041 A 
ATOM     14  C   UNL     1     126.443 138.970 154.692  1.00  0.00     0.041 A 
ATOM     15  C   UNL     1     127.591 136.765 155.971  1.00  0.00     0.029 A 
ATOM     16  C   UNL     1     127.819 138.745 154.593  1.00  0.00     0.029 A 
ATOM     17  F   UNL     1     124.336 138.309 155.519  1.00  0.00    -0.207 F 
ENDBRANCH   3  11
ENDBRANCH   1   2
BRANCH   1  18
ATOM     18  C   UNL     1     133.699 139.610 155.160  1.00  0.00     0.006 C 
BRANCH  18  19
ATOM     19  C   UNL     1     134.517 139.374 153.885  1.00  0.00     0.016 C 
BRANCH  19  20
ATOM     20  C   UNL     1     133.854 139.948 152.626  1.00  0.00     0.084 C 
BRANCH  20  21
ATOM     21  N   UNL     1     134.442 139.421 151.379  1.00  0.00    -0.303 NA
ATOM     22  C   UNL     1     133.560 139.647 150.221  1.00  0.00     0.088 C 
ATOM     23  C   UNL     1     134.703 137.976 151.530  1.00  0.00     0.088 C 
ATOM     24  C   UNL     1     134.201 139.145 148.926  1.00  0.00     0.056 C 
ATOM     25  C   UNL     1     135.400 137.405 150.297  1.00  0.00     0.056 C 
ATOM     26  C   UNL     1     134.585 137.666 149.031  1.00  0.00     0.096 C 
ATOM     27  O   UNL     1     133.367 136.864 149.098  1.00  0.00    -0.365 OA
ATOM     28  C   UNL     1     135.261 137.176 147.786  1.00  0.00    -0.011 A 
ATOM     29  C   UNL     1     133.111 136.241 147.820  1.00  0.00     0.197 C 
ATOM     30  C   UNL     1     136.529 137.453 147.294  1.00  0.00     0.007 A 
ATOM     31  C   UNL     1     134.396 136.342 147.090  1.00  0.00    -0.016 A 
ATOM     32  C   UNL     1     136.918 136.872 146.086  1.00  0.00     0.000 A 
ATOM     33  C   UNL     1     134.765 135.762 145.886  1.00  0.00     0.006 A 
ATOM     34  C   UNL     1     136.040 136.030 145.385  1.00  0.00     0.000 A 
ENDBRANCH  20  21
ENDBRANCH  19  20
ENDBRANCH  18  19
ENDBRANCH   1  18
TORSDOF 6
ENDMDL
