MODEL 1
REMARK VINA RESULT:    -6.642      0.000      0.000
REMARK INTER + INTRA:         -13.738
REMARK INTER:                 -11.301
REMARK INTRA:                  -2.437
REMARK UNBOUND:                -2.437
REMARK SMILES C=C1/C(=C\C=C2/CCC[C@]3(C)[C@@H]([C@H](C)CCCC(C)(C)O)CC[C@@H]23)C[C@@H](O)[C@@H](OCCCO)[C@@H]1O
REMARK SMILES IDX 5 1 6 2 7 3 8 4 9 5 10 6 11 7 12 8 22 9 23 10 24 11 4 12
REMARK SMILES IDX 1 13 2 14 3 15 34 16 25 17 28 18 26 19 35 20 29 22 30 23
REMARK SMILES IDX 31 24 32 25 33 26 27 28 13 30 14 31 15 32 16 33 17 34 18 35
REMARK SMILES IDX 19 36 20 37 21 38
REMARK H PARENT 35 21 33 27 27 29 21 39
ROOT
ATOM      1  C   UNL     1     135.279 136.776 149.360  1.00  0.00    -0.000 C 
ATOM      2  C   UNL     1     135.359 137.543 150.465  1.00  0.00    -0.067 C 
ATOM      3  C   UNL     1     136.100 138.863 150.578  1.00  0.00     0.031 C 
ATOM      4  C   UNL     1     135.225 139.977 151.166  1.00  0.00     0.005 C 
ATOM      5  C   UNL     1     134.492 139.562 152.452  1.00  0.00     0.008 C 
ATOM      6  C   UNL     1     133.699 138.246 152.277  1.00  0.00    -0.023 C 
ATOM      7  C   UNL     1     132.522 138.457 151.294  1.00  0.00     0.012 C 
ATOM      8  C   UNL     1     133.219 137.580 153.606  1.00  0.00    -0.002 C 
ATOM      9  C   UNL     1     133.129 136.070 153.234  1.00  0.00     0.005 C 
ATOM     10  C   UNL     1     133.937 135.863 151.950  1.00  0.00     0.009 C 
ATOM     11  C   UNL     1     134.707 137.169 151.782  1.00  0.00     0.021 C 
ENDROOT
BRANCH   1  12
ATOM     12  C   UNL     1     135.897 137.033 148.074  1.00  0.00     0.004 C 
ATOM     13  C   UNL     1     133.421 138.947 147.732  1.00  0.00     0.015 C 
ATOM     14  C   UNL     1     133.930 138.047 146.874  1.00  0.00    -0.021 C 
ATOM     15  C   UNL     1     135.308 137.557 146.979  1.00  0.00    -0.040 C 
ATOM     16  C   UNL     1     133.218 137.526 145.638  1.00  0.00     0.175 C 
ATOM     17  C   UNL     1     136.089 137.634 145.676  1.00  0.00     0.070 C 
ATOM     18  C   UNL     1     133.946 137.926 144.325  1.00  0.00     0.180 C 
ATOM     19  C   UNL     1     135.371 138.458 144.598  1.00  0.00     0.150 C 
BRANCH  16  20
ATOM     20  O   UNL     1     131.863 137.985 145.582  1.00  0.00    -0.386 OA
ATOM     21  H   UNL     1     131.850 138.692 144.913  1.00  0.00     0.211 HD
ENDBRANCH  16  20
BRANCH  18  22
ATOM     22  O   UNL     1     134.099 136.773 143.452  1.00  0.00    -0.372 OA
BRANCH  22  23
ATOM     23  C   UNL     1     133.287 135.668 143.861  1.00  0.00     0.163 C 
BRANCH  23  24
ATOM     24  C   UNL     1     134.195 134.487 144.186  1.00  0.00     0.057 C 
BRANCH  24  25
ATOM     25  C   UNL     1     133.521 133.485 145.117  1.00  0.00     0.158 C 
BRANCH  25  26
ATOM     26  O   UNL     1     132.877 134.159 146.192  1.00  0.00    -0.396 OA
ATOM     27  H   UNL     1     133.180 135.083 146.180  1.00  0.00     0.210 HD
ENDBRANCH  25  26
ENDBRANCH  24  25
ENDBRANCH  23  24
ENDBRANCH  22  23
ENDBRANCH  18  22
BRANCH  19  28
ATOM     28  O   UNL     1     136.140 138.436 143.388  1.00  0.00    -0.390 OA
ATOM     29  H   UNL     1     135.488 138.254 142.681  1.00  0.00     0.211 HD
ENDBRANCH  19  28
ENDBRANCH   1  12
BRANCH   8  30
ATOM     30  C   UNL     1     131.916 138.084 154.298  1.00  0.00    -0.011 C 
ATOM     31  C   UNL     1     132.191 138.706 155.671  1.00  0.00     0.008 C 
BRANCH  30  32
ATOM     32  C   UNL     1     130.896 136.919 154.434  1.00  0.00     0.004 C 
BRANCH  32  33
ATOM     33  C   UNL     1     129.426 137.366 154.408  1.00  0.00     0.003 C 
BRANCH  33  34
ATOM     34  C   UNL     1     128.488 136.155 154.344  1.00  0.00     0.034 C 
BRANCH  34  35
ATOM     35  C   UNL     1     127.423 136.082 155.459  1.00  0.00     0.059 C 
ATOM     36  C   UNL     1     126.028 135.784 154.908  1.00  0.00     0.042 C 
ATOM     37  C   UNL     1     127.393 137.344 156.325  1.00  0.00     0.042 C 
BRANCH  35  38
ATOM     38  O   UNL     1     127.771 134.982 156.310  1.00  0.00    -0.390 OA
ATOM     39  H   UNL     1     128.738 134.887 156.298  1.00  0.00     0.211 HD
ENDBRANCH  35  38
ENDBRANCH  34  35
ENDBRANCH  33  34
ENDBRANCH  32  33
ENDBRANCH  30  32
ENDBRANCH   8  30
TORSDOF 14
ENDMDL
