MODEL 1
REMARK VINA RESULT:    -7.824      0.000      0.000
REMARK INTER + INTRA:         -11.850
REMARK INTER:                 -10.568
REMARK INTRA:                  -1.282
REMARK UNBOUND:                -1.282
REMARK SMILES Fc1ccc(-n2cc(CCCCN3CCC4(CC3)OCc3ccccc34)c3ccccc32)cc1
REMARK SMILES IDX 9 1 8 2 6 3 7 4 32 5 31 6 27 7 30 8 28 9 29 10 5 11 2 12
REMARK SMILES IDX 3 13 34 14 4 15 33 16 1 17 10 18 11 19 12 20 13 21 14 22
REMARK SMILES IDX 18 23 15 24 17 25 16 26 19 27 26 28 20 29 25 30 21 31 24 32
REMARK SMILES IDX 22 33 23 34
REMARK H PARENT
ROOT
ATOM      1  C   UNL     1     133.012 138.643 154.755  1.00  0.00     0.038 C 
ENDROOT
BRANCH   1   2
ATOM      2  C   UNL     1     131.711 137.916 154.621  1.00  0.00    -0.022 A 
ATOM      3  N   UNL     1     129.514 137.412 154.781  1.00  0.00    -0.316 N 
ATOM      4  C   UNL     1     130.504 138.297 155.167  1.00  0.00     0.096 A 
ATOM      5  C   UNL     1     130.118 136.372 154.069  1.00  0.00     0.053 A 
ATOM      6  C   UNL     1     129.619 135.146 153.579  1.00  0.00     0.027 A 
ATOM      7  C   UNL     1     131.475 136.695 153.924  1.00  0.00     0.003 A 
ATOM      8  C   UNL     1     130.477 134.294 152.876  1.00  0.00     0.002 A 
ATOM      9  C   UNL     1     132.318 135.821 153.203  1.00  0.00     0.010 A 
ATOM     10  C   UNL     1     131.808 134.632 152.677  1.00  0.00     0.001 A 
BRANCH   3  11
ATOM     11  C   UNL     1     128.126 137.588 155.074  1.00  0.00     0.046 A 
ATOM     12  C   UNL     1     125.405 137.933 155.602  1.00  0.00     0.123 A 
ATOM     13  C   UNL     1     126.057 136.798 156.068  1.00  0.00     0.041 A 
ATOM     14  C   UNL     1     126.086 138.893 154.864  1.00  0.00     0.041 A 
ATOM     15  C   UNL     1     127.417 136.621 155.802  1.00  0.00     0.029 A 
ATOM     16  C   UNL     1     127.447 138.720 154.593  1.00  0.00     0.029 A 
ATOM     17  F   UNL     1     124.101 138.099 155.858  1.00  0.00    -0.207 F 
ENDBRANCH   3  11
ENDBRANCH   1   2
BRANCH   1  18
ATOM     18  C   UNL     1     133.222 139.656 153.624  1.00  0.00     0.006 C 
BRANCH  18  19
ATOM     19  C   UNL     1     134.549 139.475 152.879  1.00  0.00     0.016 C 
BRANCH  19  20
ATOM     20  C   UNL     1     134.471 138.443 151.745  1.00  0.00     0.084 C 
BRANCH  20  21
ATOM     21  N   UNL     1     133.775 138.959 150.550  1.00  0.00    -0.303 NA
ATOM     22  C   UNL     1     133.548 137.900 149.551  1.00  0.00     0.088 C 
ATOM     23  C   UNL     1     134.569 140.047 149.949  1.00  0.00     0.088 C 
ATOM     24  C   UNL     1     132.780 138.432 148.340  1.00  0.00     0.056 C 
ATOM     25  C   UNL     1     133.842 140.677 148.762  1.00  0.00     0.056 C 
ATOM     26  C   UNL     1     133.497 139.627 147.706  1.00  0.00     0.096 C 
ATOM     27  O   UNL     1     134.741 139.166 147.098  1.00  0.00    -0.365 OA
ATOM     28  C   UNL     1     132.728 140.190 146.550  1.00  0.00    -0.011 A 
ATOM     29  C   UNL     1     134.589 139.073 145.664  1.00  0.00     0.197 C 
ATOM     30  C   UNL     1     131.544 140.915 146.537  1.00  0.00     0.007 A 
ATOM     31  C   UNL     1     133.374 139.867 145.364  1.00  0.00    -0.016 A 
ATOM     32  C   UNL     1     131.020 141.315 145.306  1.00  0.00     0.000 A 
ATOM     33  C   UNL     1     132.864 140.251 144.135  1.00  0.00     0.006 A 
ATOM     34  C   UNL     1     131.677 140.984 144.111  1.00  0.00     0.000 A 
ENDBRANCH  20  21
ENDBRANCH  19  20
ENDBRANCH  18  19
ENDBRANCH   1  18
TORSDOF 6
ENDMDL
