MODEL 1
REMARK VINA RESULT:    -8.058      0.000      0.000
REMARK INTER + INTRA:          -8.058
REMARK INTER:                  -8.058
REMARK INTRA:                   0.000
REMARK UNBOUND:                 0.000
REMARK SMILES NC1=NC[C@@H]2c3ccccc3Cc3ccccc3N12
REMARK SMILES IDX 1 1 2 2 3 3 4 4 5 5 6 6 7 7 8 8 9 9 10 10 11 11 12 12 13 13
REMARK SMILES IDX 14 14 15 15 16 16 17 17 18 18 19 19
REMARK H PARENT 1 20 1 21
ROOT
ATOM      1  N   UNL     1     134.518 135.010 151.595  1.00  0.00    -0.369 N 
ATOM      2  C   UNL     1     133.297 135.007 152.174  1.00  0.00     0.196 C 
ATOM      3  N   UNL     1     132.558 133.926 152.135  1.00  0.00    -0.250 NA
ATOM      4  C   UNL     1     131.340 134.343 152.887  1.00  0.00     0.176 C 
ATOM      5  C   UNL     1     131.768 135.553 153.753  1.00  0.00     0.143 C 
ATOM      6  C   UNL     1     130.686 136.523 154.183  1.00  0.00    -0.020 A 
ATOM      7  C   UNL     1     129.329 136.363 153.863  1.00  0.00     0.006 A 
ATOM      8  C   UNL     1     128.369 137.262 154.335  1.00  0.00     0.000 A 
ATOM      9  C   UNL     1     128.744 138.330 155.141  1.00  0.00     0.000 A 
ATOM     10  C   UNL     1     130.082 138.504 155.481  1.00  0.00     0.004 A 
ATOM     11  C   UNL     1     131.054 137.605 155.014  1.00  0.00    -0.038 A 
ATOM     12  C   UNL     1     132.512 137.816 155.349  1.00  0.00     0.073 C 
ATOM     13  C   UNL     1     133.299 138.209 154.121  1.00  0.00    -0.020 A 
ATOM     14  C   UNL     1     133.912 139.483 154.128  1.00  0.00     0.006 A 
ATOM     15  C   UNL     1     134.606 139.956 153.020  1.00  0.00     0.000 A 
ATOM     16  C   UNL     1     134.681 139.170 151.884  1.00  0.00     0.002 A 
ATOM     17  C   UNL     1     134.082 137.906 151.872  1.00  0.00     0.027 A 
ATOM     18  C   UNL     1     133.402 137.369 152.988  1.00  0.00     0.048 A 
ATOM     19  N   UNL     1     132.853 136.080 152.911  1.00  0.00    -0.303 N 
ATOM     20  H   UNL     1     135.230 135.458 152.158  1.00  0.00     0.159 HD
ATOM     21  H   UNL     1     134.786 134.073 151.314  1.00  0.00     0.159 HD
ENDROOT
TORSDOF 0
ENDMDL
