MODEL 1
REMARK VINA RESULT:    -8.147      0.000      0.000
REMARK INTER + INTRA:         -12.574
REMARK INTER:                 -11.004
REMARK INTRA:                  -1.569
REMARK UNBOUND:                -1.569
REMARK SMILES Fc1ccc(-n2cc(CCCCN3CCC4(CC3)OCc3ccccc34)c3ccccc32)cc1
REMARK SMILES IDX 9 1 8 2 6 3 7 4 32 5 31 6 27 7 30 8 28 9 29 10 5 11 2 12
REMARK SMILES IDX 3 13 34 14 4 15 33 16 1 17 10 18 11 19 12 20 13 21 14 22
REMARK SMILES IDX 18 23 15 24 17 25 16 26 19 27 26 28 20 29 25 30 21 31 24 32
REMARK SMILES IDX 22 33 23 34
REMARK H PARENT
ROOT
ATOM      1  C   UNL     1     133.361 138.294 155.875  1.00  0.00     0.038 C 
ENDROOT
BRANCH   1   2
ATOM      2  C   UNL     1     132.062 137.729 155.394  1.00  0.00    -0.022 A 
ATOM      3  N   UNL     1     129.844 137.399 155.114  1.00  0.00    -0.316 N 
ATOM      4  C   UNL     1     130.804 138.091 155.828  1.00  0.00     0.096 A 
ATOM      5  C   UNL     1     130.498 136.485 154.284  1.00  0.00     0.053 A 
ATOM      6  C   UNL     1     130.019 135.441 153.464  1.00  0.00     0.027 A 
ATOM      7  C   UNL     1     131.875 136.710 154.414  1.00  0.00     0.003 A 
ATOM      8  C   UNL     1     130.932 134.685 152.722  1.00  0.00     0.002 A 
ATOM      9  C   UNL     1     132.776 135.939 153.648  1.00  0.00     0.010 A 
ATOM     10  C   UNL     1     132.294 134.938 152.800  1.00  0.00     0.001 A 
BRANCH   3  11
ATOM     11  C   UNL     1     128.438 137.632 155.232  1.00  0.00     0.046 A 
ATOM     12  C   UNL     1     125.688 138.082 155.419  1.00  0.00     0.123 A 
ATOM     13  C   UNL     1     126.247 136.977 156.049  1.00  0.00     0.041 A 
ATOM     14  C   UNL     1     126.477 138.960 154.687  1.00  0.00     0.041 A 
ATOM     15  C   UNL     1     127.622 136.747 155.953  1.00  0.00     0.029 A 
ATOM     16  C   UNL     1     127.853 138.733 154.586  1.00  0.00     0.029 A 
ATOM     17  F   UNL     1     124.370 138.299 155.512  1.00  0.00    -0.207 F 
ENDBRANCH   3  11
ENDBRANCH   1   2
BRANCH   1  18
ATOM     18  C   UNL     1     133.723 139.597 155.155  1.00  0.00     0.006 C 
BRANCH  18  19
ATOM     19  C   UNL     1     134.541 139.383 153.877  1.00  0.00     0.016 C 
BRANCH  19  20
ATOM     20  C   UNL     1     133.845 139.918 152.617  1.00  0.00     0.084 C 
BRANCH  20  21
ATOM     21  N   UNL     1     134.439 139.397 151.371  1.00  0.00    -0.303 NA
ATOM     22  C   UNL     1     133.563 139.630 150.209  1.00  0.00     0.088 C 
ATOM     23  C   UNL     1     134.699 137.952 151.515  1.00  0.00     0.088 C 
ATOM     24  C   UNL     1     134.211 139.134 148.915  1.00  0.00     0.056 C 
ATOM     25  C   UNL     1     135.403 137.387 150.283  1.00  0.00     0.056 C 
ATOM     26  C   UNL     1     134.594 137.655 149.014  1.00  0.00     0.096 C 
ATOM     27  O   UNL     1     133.376 136.853 149.071  1.00  0.00    -0.365 OA
ATOM     28  C   UNL     1     135.276 137.171 147.771  1.00  0.00    -0.011 A 
ATOM     29  C   UNL     1     133.126 136.237 147.788  1.00  0.00     0.197 C 
ATOM     30  C   UNL     1     136.547 137.450 147.287  1.00  0.00     0.007 A 
ATOM     31  C   UNL     1     134.416 136.341 147.065  1.00  0.00    -0.016 A 
ATOM     32  C   UNL     1     136.942 136.875 146.078  1.00  0.00     0.000 A 
ATOM     33  C   UNL     1     134.790 135.767 145.861  1.00  0.00     0.006 A 
ATOM     34  C   UNL     1     136.068 136.037 145.368  1.00  0.00     0.000 A 
ENDBRANCH  20  21
ENDBRANCH  19  20
ENDBRANCH  18  19
ENDBRANCH   1  18
TORSDOF 6
ENDMDL
