MODEL 1
REMARK VINA RESULT:    -7.929      0.000      0.000
REMARK INTER + INTRA:         -11.934
REMARK INTER:                 -10.711
REMARK INTRA:                  -1.223
REMARK UNBOUND:                -1.223
REMARK SMILES Fc1ccc(-n2cc(CCCCN3CCC4(CC3)OCc3ccccc34)c3ccccc32)cc1
REMARK SMILES IDX 9 1 8 2 6 3 7 4 32 5 31 6 27 7 30 8 28 9 29 10 5 11 2 12
REMARK SMILES IDX 3 13 34 14 4 15 33 16 1 17 10 18 11 19 12 20 13 21 14 22
REMARK SMILES IDX 18 23 15 24 17 25 16 26 19 27 26 28 20 29 25 30 21 31 24 32
REMARK SMILES IDX 22 33 23 34
REMARK H PARENT
ROOT
ATOM      1  C   UNL     1     132.843 138.565 155.053  1.00  0.00     0.038 C 
ENDROOT
BRANCH   1   2
ATOM      2  C   UNL     1     131.565 137.830 154.801  1.00  0.00    -0.022 A 
ATOM      3  N   UNL     1     129.369 137.296 154.787  1.00  0.00    -0.316 N 
ATOM      4  C   UNL     1     130.317 138.176 155.275  1.00  0.00     0.096 A 
ATOM      5  C   UNL     1     130.035 136.292 154.079  1.00  0.00     0.053 A 
ATOM      6  C   UNL     1     129.587 135.082 153.508  1.00  0.00     0.027 A 
ATOM      7  C   UNL     1     131.394 136.635 154.042  1.00  0.00     0.003 A 
ATOM      8  C   UNL     1     130.503 134.268 152.834  1.00  0.00     0.002 A 
ATOM      9  C   UNL     1     132.296 135.800 153.348  1.00  0.00     0.010 A 
ATOM     10  C   UNL     1     131.840 134.628 152.742  1.00  0.00     0.001 A 
BRANCH   3  11
ATOM     11  C   UNL     1     127.961 137.446 154.989  1.00  0.00     0.046 A 
ATOM     12  C   UNL     1     125.218 137.730 155.428  1.00  0.00     0.123 A 
ATOM     13  C   UNL     1     125.952 138.808 154.947  1.00  0.00     0.041 A 
ATOM     14  C   UNL     1     125.833 136.516 155.706  1.00  0.00     0.041 A 
ATOM     15  C   UNL     1     127.325 138.670 154.731  1.00  0.00     0.029 A 
ATOM     16  C   UNL     1     127.208 136.373 155.493  1.00  0.00     0.029 A 
ATOM     17  F   UNL     1     123.902 137.867 155.635  1.00  0.00    -0.207 F 
ENDBRANCH   3  11
ENDBRANCH   1   2
BRANCH   1  18
ATOM     18  C   UNL     1     133.085 139.667 154.016  1.00  0.00     0.006 C 
BRANCH  18  19
ATOM     19  C   UNL     1     134.439 139.554 153.306  1.00  0.00     0.016 C 
BRANCH  19  20
ATOM     20  C   UNL     1     134.450 138.499 152.191  1.00  0.00     0.084 C 
BRANCH  20  21
ATOM     21  N   UNL     1     133.821 138.977 150.945  1.00  0.00    -0.303 NA
ATOM     22  C   UNL     1     133.537 137.869 150.016  1.00  0.00     0.088 C 
ATOM     23  C   UNL     1     134.707 139.959 150.291  1.00  0.00     0.088 C 
ATOM     24  C   UNL     1     132.837 138.368 148.751  1.00  0.00     0.056 C 
ATOM     25  C   UNL     1     134.054 140.554 149.045  1.00  0.00     0.056 C 
ATOM     26  C   UNL     1     133.655 139.459 148.055  1.00  0.00     0.096 C 
ATOM     27  O   UNL     1     134.874 138.867 147.514  1.00  0.00    -0.365 OA
ATOM     28  C   UNL     1     132.955 139.993 146.842  1.00  0.00    -0.011 A 
ATOM     29  C   UNL     1     134.746 138.683 146.086  1.00  0.00     0.197 C 
ATOM     30  C   UNL     1     131.828 140.799 146.747  1.00  0.00     0.007 A 
ATOM     31  C   UNL     1     133.600 139.539 145.700  1.00  0.00    -0.016 A 
ATOM     32  C   UNL     1     131.362 141.147 145.478  1.00  0.00     0.000 A 
ATOM     33  C   UNL     1     133.147 139.871 144.433  1.00  0.00     0.006 A 
ATOM     34  C   UNL     1     132.018 140.686 144.327  1.00  0.00     0.000 A 
ENDBRANCH  20  21
ENDBRANCH  19  20
ENDBRANCH  18  19
ENDBRANCH   1  18
TORSDOF 6
ENDMDL
