MODEL 1
REMARK VINA RESULT:    -8.287      0.000      0.000
REMARK INTER + INTRA:          -8.287
REMARK INTER:                  -8.287
REMARK INTRA:                   0.000
REMARK UNBOUND:                 0.000
REMARK SMILES NC1=NC[C@@H]2c3ccccc3Cc3ccccc3N12
REMARK SMILES IDX 1 1 2 2 3 3 4 4 5 5 6 6 7 7 8 8 9 9 10 10 11 11 12 12 13 13
REMARK SMILES IDX 14 14 15 15 16 16 17 17 18 18 19 19
REMARK H PARENT 1 20 1 21
ROOT
ATOM      1  N   UNL     1     134.646 135.324 151.965  1.00  0.00    -0.369 N 
ATOM      2  C   UNL     1     133.370 135.269 152.407  1.00  0.00     0.196 C 
ATOM      3  N   UNL     1     132.630 134.223 152.136  1.00  0.00    -0.250 NA
ATOM      4  C   UNL     1     131.342 134.559 152.808  1.00  0.00     0.176 C 
ATOM      5  C   UNL     1     131.685 135.624 153.878  1.00  0.00     0.143 C 
ATOM      6  C   UNL     1     130.572 136.550 154.326  1.00  0.00    -0.020 A 
ATOM      7  C   UNL     1     129.256 136.469 153.846  1.00  0.00     0.006 A 
ATOM      8  C   UNL     1     128.258 137.316 154.338  1.00  0.00     0.000 A 
ATOM      9  C   UNL     1     128.554 138.250 155.323  1.00  0.00     0.000 A 
ATOM     10  C   UNL     1     129.850 138.342 155.823  1.00  0.00     0.004 A 
ATOM     11  C   UNL     1     130.858 137.494 155.337  1.00  0.00    -0.038 A 
ATOM     12  C   UNL     1     132.274 137.622 155.850  1.00  0.00     0.073 C 
ATOM     13  C   UNL     1     133.192 138.164 154.780  1.00  0.00    -0.020 A 
ATOM     14  C   UNL     1     133.812 139.409 155.033  1.00  0.00     0.006 A 
ATOM     15  C   UNL     1     134.625 140.016 154.083  1.00  0.00     0.000 A 
ATOM     16  C   UNL     1     134.815 139.397 152.860  1.00  0.00     0.002 A 
ATOM     17  C   UNL     1     134.208 138.163 152.605  1.00  0.00     0.027 A 
ATOM     18  C   UNL     1     133.408 137.490 153.556  1.00  0.00     0.048 A 
ATOM     19  N   UNL     1     132.859 136.238 153.239  1.00  0.00    -0.303 N 
ATOM     20  H   UNL     1     135.297 135.671 152.658  1.00  0.00     0.159 HD
ATOM     21  H   UNL     1     134.934 134.430 151.583  1.00  0.00     0.159 HD
ENDROOT
TORSDOF 0
ENDMDL
