MODEL 1
REMARK VINA RESULT:    -7.435      0.000      0.000
REMARK INTER + INTRA:         -10.196
REMARK INTER:                  -9.174
REMARK INTRA:                  -1.022
REMARK UNBOUND:                -1.022
REMARK SMILES C[C@@H](C(=O)Nc1ccc(Cl)cc1)[C@H]1CC[C@@H](c2ccnc3ccc(F)cc32)CC1
REMARK SMILES IDX 1 1 2 2 3 3 4 4 5 5 6 7 7 8 12 9 8 10 11 11 9 12 10 13 13 14
REMARK SMILES IDX 29 15 14 16 28 17 15 18 16 19 17 20 18 21 27 22 19 23 26 24
REMARK SMILES IDX 21 25 20 26 24 27 22 28 23 29 25 30
REMARK H PARENT 5 6
ROOT
ATOM      1  C   UNL     1     135.460 136.086 151.387  1.00  0.00     0.018 C 
ATOM      2  C   UNL     1     135.081 137.479 150.871  1.00  0.00     0.079 C 
ENDROOT
BRANCH   2   3
ATOM      3  C   UNL     1     135.981 137.845 149.683  1.00  0.00     0.227 C 
ATOM      4  O   UNL     1     136.984 138.527 149.868  1.00  0.00    -0.274 OA
ATOM      5  N   UNL     1     135.539 137.354 148.468  1.00  0.00    -0.326 N 
ATOM      6  H   UNL     1     134.693 136.801 148.480  1.00  0.00     0.169 HD
BRANCH   5   7
ATOM      7  C   UNL     1     136.133 137.532 147.201  1.00  0.00     0.041 A 
ATOM      8  C   UNL     1     135.524 138.452 146.336  1.00  0.00     0.027 A 
ATOM      9  C   UNL     1     137.276 136.855 146.769  1.00  0.00     0.027 A 
ATOM     10  C   UNL     1     136.049 138.689 145.061  1.00  0.00     0.022 A 
ATOM     11  C   UNL     1     137.803 137.092 145.494  1.00  0.00     0.022 A 
ATOM     12  C   UNL     1     137.188 138.006 144.646  1.00  0.00     0.041 A 
ATOM     13  Cl  UNL     1     137.837 138.297 143.079  1.00  0.00    -0.084 Cl
ENDBRANCH   5   7
ENDBRANCH   2   3
BRANCH   2  14
ATOM     14  C   UNL     1     133.569 137.613 150.522  1.00  0.00     0.001 C 
ATOM     15  C   UNL     1     132.702 136.512 151.163  1.00  0.00     0.005 C 
ATOM     16  C   UNL     1     132.987 138.987 150.917  1.00  0.00     0.005 C 
ATOM     17  C   UNL     1     132.573 136.658 152.680  1.00  0.00     0.009 C 
ATOM     18  C   UNL     1     132.877 139.167 152.433  1.00  0.00     0.009 C 
ATOM     19  C   UNL     1     132.033 138.044 153.072  1.00  0.00     0.020 C 
BRANCH  19  20
ATOM     20  C   UNL     1     131.873 138.145 154.588  1.00  0.00    -0.034 A 
ATOM     21  C   UNL     1     132.999 138.056 155.417  1.00  0.00     0.025 A 
ATOM     22  C   UNL     1     130.594 138.285 155.207  1.00  0.00     0.007 A 
ATOM     23  C   UNL     1     132.838 138.147 156.786  1.00  0.00     0.112 A 
ATOM     24  C   UNL     1     129.362 138.338 154.509  1.00  0.00     0.049 A 
ATOM     25  C   UNL     1     130.555 138.370 156.625  1.00  0.00     0.071 A 
ATOM     26  N   UNL     1     131.649 138.308 157.394  1.00  0.00    -0.256 NA
ATOM     27  C   UNL     1     128.158 138.483 155.188  1.00  0.00     0.123 A 
ATOM     28  C   UNL     1     129.332 138.516 157.269  1.00  0.00     0.032 A 
ATOM     29  C   UNL     1     128.130 138.576 156.566  1.00  0.00     0.041 A 
ATOM     30  F   UNL     1     127.013 138.528 154.496  1.00  0.00    -0.207 F 
ENDBRANCH  19  20
ENDBRANCH   2  14
TORSDOF 4
ENDMDL
