MODEL 1
REMARK VINA RESULT:    -7.428      0.000      0.000
REMARK INTER + INTRA:          -9.088
REMARK INTER:                  -9.382
REMARK INTRA:                   0.294
REMARK UNBOUND:                 0.294
REMARK SMILES NS(=O)(=O)c1cc2c(cc1C(F)(F)F)N[C@@H](Cc1ccccc1)NS2(=O)=O
REMARK SMILES IDX 5 1 6 2 7 3 8 4 9 5 10 6 15 7 16 8 24 9 25 10 26 11 27 12
REMARK SMILES IDX 2 15 3 16 4 17 1 18 11 21 12 22 13 23 14 24 17 25 18 26
REMARK SMILES IDX 19 27 23 28 20 29 22 30 21 31
REMARK H PARENT 15 13 24 14 1 19 1 20
ROOT
ATOM      1  C   UNL     1     133.368 137.205 148.902  1.00  0.00     0.095 A 
ATOM      2  C   UNL     1     133.226 136.244 149.911  1.00  0.00     0.046 A 
ATOM      3  C   UNL     1     133.061 136.658 151.236  1.00  0.00     0.107 A 
ATOM      4  C   UNL     1     133.002 138.003 151.591  1.00  0.00     0.056 A 
ATOM      5  C   UNL     1     133.133 138.947 150.563  1.00  0.00     0.041 A 
ATOM      6  C   UNL     1     133.327 138.577 149.211  1.00  0.00     0.078 A 
ATOM      7  N   UNL     1     132.856 138.465 152.898  1.00  0.00    -0.368 N 
ATOM      8  C   UNL     1     132.942 137.532 154.007  1.00  0.00     0.166 C 
ATOM      9  N   UNL     1     132.141 136.365 153.716  1.00  0.00    -0.189 NA
ATOM     10  S   UNL     1     132.783 135.445 152.477  1.00  0.00     0.244 S 
ATOM     11  O   UNL     1     134.072 134.941 152.894  1.00  0.00    -0.207 OA
ATOM     12  O   UNL     1     131.720 134.579 152.022  1.00  0.00    -0.207 OA
ATOM     13  H   UNL     1     132.103 139.145 152.987  1.00  0.00     0.162 HD
ATOM     14  H   UNL     1     131.149 136.541 153.575  1.00  0.00     0.143 HD
ENDROOT
BRANCH   1  15
ATOM     15  S   UNL     1     133.552 136.631 147.229  1.00  0.00     0.238 S 
ATOM     16  O   UNL     1     134.956 136.566 146.913  1.00  0.00    -0.207 OA
ATOM     17  O   UNL     1     132.604 137.323 146.389  1.00  0.00    -0.207 OA
BRANCH  15  18
ATOM     18  N   UNL     1     132.984 135.062 147.351  1.00  0.00    -0.225 NA
ATOM     19  H   UNL     1     132.390 134.962 148.175  1.00  0.00     0.137 HD
ATOM     20  H   UNL     1     132.535 134.776 146.478  1.00  0.00     0.137 HD
ENDBRANCH  15  18
ENDBRANCH   1  15
BRANCH   6  21
ATOM     21  C   UNL     1     133.450 139.675 148.177  1.00  0.00     0.417 C 
ATOM     22  F   UNL     1     132.300 139.870 147.481  1.00  0.00    -0.166 F 
ATOM     23  F   UNL     1     134.445 139.485 147.269  1.00  0.00    -0.166 F 
ATOM     24  F   UNL     1     133.730 140.886 148.745  1.00  0.00    -0.166 F 
ENDBRANCH   6  21
BRANCH   8  25
ATOM     25  C   UNL     1     132.512 138.184 155.343  1.00  0.00     0.077 C 
BRANCH  25  26
ATOM     26  C   UNL     1     131.020 138.311 155.566  1.00  0.00    -0.045 A 
ATOM     27  C   UNL     1     130.137 138.358 154.476  1.00  0.00     0.004 A 
ATOM     28  C   UNL     1     130.496 138.384 156.865  1.00  0.00     0.004 A 
ATOM     29  C   UNL     1     128.761 138.452 154.684  1.00  0.00     0.000 A 
ATOM     30  C   UNL     1     129.119 138.478 157.071  1.00  0.00     0.000 A 
ATOM     31  C   UNL     1     128.252 138.508 155.980  1.00  0.00     0.000 A 
ENDBRANCH  25  26
ENDBRANCH   8  25
TORSDOF 5
ENDMDL
