MODEL 1
REMARK VINA RESULT:    -7.923      0.000      0.000
REMARK INTER + INTRA:         -11.877
REMARK INTER:                 -10.702
REMARK INTRA:                  -1.175
REMARK UNBOUND:                -1.175
REMARK SMILES Fc1ccc(-n2cc(CCCCN3CCC4(CC3)OCc3ccccc34)c3ccccc32)cc1
REMARK SMILES IDX 9 1 8 2 6 3 7 4 32 5 31 6 27 7 30 8 28 9 29 10 5 11 2 12
REMARK SMILES IDX 3 13 34 14 4 15 33 16 1 17 10 18 11 19 12 20 13 21 14 22
REMARK SMILES IDX 18 23 15 24 17 25 16 26 19 27 26 28 20 29 25 30 21 31 24 32
REMARK SMILES IDX 22 33 23 34
REMARK H PARENT
ROOT
ATOM      1  C   UNL     1     132.959 138.610 154.846  1.00  0.00     0.038 C 
ENDROOT
BRANCH   1   2
ATOM      2  C   UNL     1     131.676 137.863 154.654  1.00  0.00    -0.022 A 
ATOM      3  N   UNL     1     129.483 137.324 154.718  1.00  0.00    -0.316 N 
ATOM      4  C   UNL     1     130.441 138.223 155.149  1.00  0.00     0.096 A 
ATOM      5  C   UNL     1     130.133 136.298 154.028  1.00  0.00     0.053 A 
ATOM      6  C   UNL     1     129.674 135.067 153.512  1.00  0.00     0.027 A 
ATOM      7  C   UNL     1     131.489 136.642 153.942  1.00  0.00     0.003 A 
ATOM      8  C   UNL     1     130.575 134.231 152.843  1.00  0.00     0.002 A 
ATOM      9  C   UNL     1     132.376 135.785 153.255  1.00  0.00     0.010 A 
ATOM     10  C   UNL     1     131.908 134.591 152.702  1.00  0.00     0.001 A 
BRANCH   3  11
ATOM     11  C   UNL     1     128.081 137.478 154.952  1.00  0.00     0.046 A 
ATOM     12  C   UNL     1     125.348 137.770 155.453  1.00  0.00     0.123 A 
ATOM     13  C   UNL     1     126.074 138.846 154.956  1.00  0.00     0.041 A 
ATOM     14  C   UNL     1     125.966 136.554 155.716  1.00  0.00     0.041 A 
ATOM     15  C   UNL     1     127.442 138.704 154.709  1.00  0.00     0.029 A 
ATOM     16  C   UNL     1     127.335 136.407 155.472  1.00  0.00     0.029 A 
ATOM     17  F   UNL     1     124.038 137.910 155.690  1.00  0.00    -0.207 F 
ENDBRANCH   3  11
ENDBRANCH   1   2
BRANCH   1  18
ATOM     18  C   UNL     1     133.195 139.638 153.735  1.00  0.00     0.006 C 
BRANCH  18  19
ATOM     19  C   UNL     1     134.536 139.462 153.013  1.00  0.00     0.016 C 
BRANCH  19  20
ATOM     20  C   UNL     1     134.480 138.431 151.877  1.00  0.00     0.084 C 
BRANCH  20  21
ATOM     21  N   UNL     1     133.798 138.943 150.673  1.00  0.00    -0.303 NA
ATOM     22  C   UNL     1     133.519 137.868 149.704  1.00  0.00     0.088 C 
ATOM     23  C   UNL     1     134.634 139.980 150.037  1.00  0.00     0.088 C 
ATOM     24  C   UNL     1     132.765 138.400 148.484  1.00  0.00     0.056 C 
ATOM     25  C   UNL     1     133.926 140.608 148.838  1.00  0.00     0.056 C 
ATOM     26  C   UNL     1     133.529 139.545 147.814  1.00  0.00     0.096 C 
ATOM     27  O   UNL     1     134.747 139.015 147.211  1.00  0.00    -0.365 OA
ATOM     28  C   UNL     1     132.776 140.109 146.646  1.00  0.00    -0.011 A 
ATOM     29  C   UNL     1     134.580 138.889 145.780  1.00  0.00     0.197 C 
ATOM     30  C   UNL     1     131.624 140.884 146.621  1.00  0.00     0.007 A 
ATOM     31  C   UNL     1     133.399 139.726 145.466  1.00  0.00    -0.016 A 
ATOM     32  C   UNL     1     131.108 141.272 145.383  1.00  0.00     0.000 A 
ATOM     33  C   UNL     1     132.896 140.098 144.230  1.00  0.00     0.006 A 
ATOM     34  C   UNL     1     131.742 140.882 144.193  1.00  0.00     0.000 A 
ENDBRANCH  20  21
ENDBRANCH  19  20
ENDBRANCH  18  19
ENDBRANCH   1  18
TORSDOF 6
ENDMDL
