MODEL 1
REMARK VINA RESULT:    -8.131      0.000      0.000
REMARK INTER + INTRA:         -12.546
REMARK INTER:                 -10.982
REMARK INTRA:                  -1.564
REMARK UNBOUND:                -1.564
REMARK SMILES Fc1ccc(-n2cc(CCCCN3CCC4(CC3)OCc3ccccc34)c3ccccc32)cc1
REMARK SMILES IDX 9 1 8 2 6 3 7 4 32 5 31 6 27 7 30 8 28 9 29 10 5 11 2 12
REMARK SMILES IDX 3 13 34 14 4 15 33 16 1 17 10 18 11 19 12 20 13 21 14 22
REMARK SMILES IDX 18 23 15 24 17 25 16 26 19 27 26 28 20 29 25 30 21 31 24 32
REMARK SMILES IDX 22 33 23 34
REMARK H PARENT
ROOT
ATOM      1  C   UNL     1     133.385 138.329 155.813  1.00  0.00     0.038 C 
ENDROOT
BRANCH   1   2
ATOM      2  C   UNL     1     132.082 137.754 155.352  1.00  0.00    -0.022 A 
ATOM      3  N   UNL     1     129.863 137.415 155.095  1.00  0.00    -0.316 N 
ATOM      4  C   UNL     1     130.827 138.120 155.791  1.00  0.00     0.096 A 
ATOM      5  C   UNL     1     130.512 136.489 154.275  1.00  0.00     0.053 A 
ATOM      6  C   UNL     1     130.029 135.431 153.476  1.00  0.00     0.027 A 
ATOM      7  C   UNL     1     131.890 136.719 154.391  1.00  0.00     0.003 A 
ATOM      8  C   UNL     1     130.938 134.665 152.739  1.00  0.00     0.002 A 
ATOM      9  C   UNL     1     132.786 135.937 153.629  1.00  0.00     0.010 A 
ATOM     10  C   UNL     1     132.300 134.922 152.802  1.00  0.00     0.001 A 
BRANCH   3  11
ATOM     11  C   UNL     1     128.458 137.646 155.222  1.00  0.00     0.046 A 
ATOM     12  C   UNL     1     125.708 138.094 155.425  1.00  0.00     0.123 A 
ATOM     13  C   UNL     1     126.274 136.995 156.060  1.00  0.00     0.041 A 
ATOM     14  C   UNL     1     126.490 138.967 154.679  1.00  0.00     0.041 A 
ATOM     15  C   UNL     1     127.648 136.766 155.956  1.00  0.00     0.029 A 
ATOM     16  C   UNL     1     127.866 138.741 154.570  1.00  0.00     0.029 A 
ATOM     17  F   UNL     1     124.390 138.309 155.525  1.00  0.00    -0.207 F 
ENDBRANCH   3  11
ENDBRANCH   1   2
BRANCH   1  18
ATOM     18  C   UNL     1     133.732 139.627 155.077  1.00  0.00     0.006 C 
BRANCH  18  19
ATOM     19  C   UNL     1     134.544 139.405 153.795  1.00  0.00     0.016 C 
BRANCH  19  20
ATOM     20  C   UNL     1     133.829 139.906 152.532  1.00  0.00     0.084 C 
BRANCH  20  21
ATOM     21  N   UNL     1     134.435 139.390 151.290  1.00  0.00    -0.303 NA
ATOM     22  C   UNL     1     133.566 139.618 150.122  1.00  0.00     0.088 C 
ATOM     23  C   UNL     1     134.702 137.946 151.435  1.00  0.00     0.088 C 
ATOM     24  C   UNL     1     134.226 139.128 148.832  1.00  0.00     0.056 C 
ATOM     25  C   UNL     1     135.418 137.386 150.207  1.00  0.00     0.056 C 
ATOM     26  C   UNL     1     134.617 137.651 148.933  1.00  0.00     0.096 C 
ATOM     27  O   UNL     1     133.404 136.841 148.980  1.00  0.00    -0.365 OA
ATOM     28  C   UNL     1     135.311 137.173 147.693  1.00  0.00    -0.011 A 
ATOM     29  C   UNL     1     133.166 136.225 147.694  1.00  0.00     0.197 C 
ATOM     30  C   UNL     1     136.584 137.460 147.219  1.00  0.00     0.007 A 
ATOM     31  C   UNL     1     134.460 136.338 146.981  1.00  0.00    -0.016 A 
ATOM     32  C   UNL     1     136.991 136.888 146.012  1.00  0.00     0.000 A 
ATOM     33  C   UNL     1     134.847 135.768 145.779  1.00  0.00     0.006 A 
ATOM     34  C   UNL     1     136.126 136.046 145.295  1.00  0.00     0.000 A 
ENDBRANCH  20  21
ENDBRANCH  19  20
ENDBRANCH  18  19
ENDBRANCH   1  18
TORSDOF 6
ENDMDL
