MODEL 1
REMARK VINA RESULT:    -6.658      0.000      0.000
REMARK INTER + INTRA:         -14.096
REMARK INTER:                 -11.329
REMARK INTRA:                  -2.766
REMARK UNBOUND:                -2.766
REMARK SMILES C=C1/C(=C\C=C2/CCC[C@]3(C)[C@@H]([C@H](C)CCCC(C)(C)O)CC[C@@H]23)C[C@@H](O)[C@@H](OCCCO)[C@@H]1O
REMARK SMILES IDX 5 1 6 2 7 3 8 4 9 5 10 6 11 7 12 8 22 9 23 10 24 11 4 12
REMARK SMILES IDX 1 13 2 14 3 15 34 16 25 17 28 18 26 19 35 20 29 22 30 23
REMARK SMILES IDX 31 24 32 25 33 26 27 28 13 30 14 31 15 32 16 33 17 34 18 35
REMARK SMILES IDX 19 36 20 37 21 38
REMARK H PARENT 35 21 33 27 27 29 21 39
ROOT
ATOM      1  C   UNL     1     135.288 136.850 149.719  1.00  0.00    -0.000 C 
ATOM      2  C   UNL     1     135.278 137.653 150.801  1.00  0.00    -0.067 C 
ATOM      3  C   UNL     1     135.929 139.022 150.898  1.00  0.00     0.031 C 
ATOM      4  C   UNL     1     134.964 140.093 151.418  1.00  0.00     0.005 C 
ATOM      5  C   UNL     1     134.212 139.672 152.690  1.00  0.00     0.008 C 
ATOM      6  C   UNL     1     133.511 138.302 152.530  1.00  0.00    -0.023 C 
ATOM      7  C   UNL     1     132.360 138.406 151.500  1.00  0.00     0.012 C 
ATOM      8  C   UNL     1     133.025 137.646 153.862  1.00  0.00    -0.002 C 
ATOM      9  C   UNL     1     133.046 136.123 153.537  1.00  0.00     0.005 C 
ATOM     10  C   UNL     1     133.912 135.930 152.289  1.00  0.00     0.009 C 
ATOM     11  C   UNL     1     134.603 137.278 152.106  1.00  0.00     0.021 C 
ENDROOT
BRANCH   1  12
ATOM     12  C   UNL     1     135.936 137.107 148.448  1.00  0.00     0.004 C 
ATOM     13  C   UNL     1     133.350 138.833 147.951  1.00  0.00     0.015 C 
ATOM     14  C   UNL     1     133.952 137.942 147.144  1.00  0.00    -0.021 C 
ATOM     15  C   UNL     1     135.355 137.553 147.315  1.00  0.00    -0.040 C 
ATOM     16  C   UNL     1     133.325 137.333 145.902  1.00  0.00     0.175 C 
ATOM     17  C   UNL     1     136.178 137.642 146.040  1.00  0.00     0.070 C 
ATOM     18  C   UNL     1     134.073 137.740 144.603  1.00  0.00     0.180 C 
ATOM     19  C   UNL     1     135.447 138.378 144.908  1.00  0.00     0.150 C 
BRANCH  16  20
ATOM     20  O   UNL     1     131.944 137.695 145.782  1.00  0.00    -0.386 OA
ATOM     21  H   UNL     1     131.446 136.859 145.832  1.00  0.00     0.211 HD
ENDBRANCH  16  20
BRANCH  18  22
ATOM     22  O   UNL     1     134.338 136.573 143.777  1.00  0.00    -0.372 OA
BRANCH  22  23
ATOM     23  C   UNL     1     133.137 135.955 143.306  1.00  0.00     0.163 C 
BRANCH  23  24
ATOM     24  C   UNL     1     133.374 134.454 143.183  1.00  0.00     0.057 C 
BRANCH  24  25
ATOM     25  C   UNL     1     133.702 133.813 144.526  1.00  0.00     0.158 C 
BRANCH  25  26
ATOM     26  O   UNL     1     134.924 134.329 145.040  1.00  0.00    -0.396 OA
ATOM     27  H   UNL     1     135.527 134.454 144.287  1.00  0.00     0.210 HD
ENDBRANCH  25  26
ENDBRANCH  24  25
ENDBRANCH  23  24
ENDBRANCH  22  23
ENDBRANCH  18  22
BRANCH  19  28
ATOM     28  O   UNL     1     136.261 138.372 143.728  1.00  0.00    -0.390 OA
ATOM     29  H   UNL     1     136.022 137.543 143.264  1.00  0.00     0.211 HD
ENDBRANCH  19  28
ENDBRANCH   1  12
BRANCH   8  30
ATOM     30  C   UNL     1     131.668 138.086 154.492  1.00  0.00    -0.011 C 
ATOM     31  C   UNL     1     131.823 138.545 155.945  1.00  0.00     0.008 C 
BRANCH  30  32
ATOM     32  C   UNL     1     130.636 136.927 154.406  1.00  0.00     0.004 C 
BRANCH  32  33
ATOM     33  C   UNL     1     129.171 137.386 154.442  1.00  0.00     0.003 C 
BRANCH  33  34
ATOM     34  C   UNL     1     128.220 136.190 154.324  1.00  0.00     0.034 C 
BRANCH  34  35
ATOM     35  C   UNL     1     127.266 135.981 155.519  1.00  0.00     0.059 C 
ATOM     36  C   UNL     1     125.850 135.617 155.074  1.00  0.00     0.042 C 
ATOM     37  C   UNL     1     127.233 137.188 156.461  1.00  0.00     0.042 C 
BRANCH  35  38
ATOM     38  O   UNL     1     127.760 134.862 156.268  1.00  0.00    -0.390 OA
ATOM     39  H   UNL     1     127.313 134.063 155.943  1.00  0.00     0.211 HD
ENDBRANCH  35  38
ENDBRANCH  34  35
ENDBRANCH  33  34
ENDBRANCH  32  33
ENDBRANCH  30  32
ENDBRANCH   8  30
TORSDOF 14
ENDMDL
