MODEL 1
REMARK VINA RESULT:    -6.984      0.000      0.000
REMARK INTER + INTRA:         -12.011
REMARK INTER:                  -9.638
REMARK INTRA:                  -2.373
REMARK UNBOUND:                -2.373
REMARK SMILES O=C(O)c1ccc(N2C(=O)/C(=C/c3ccc(-c4ccc([N+](=O)[O-])cc4)o3)C=C2c2ccccc2)cc1
REMARK SMILES IDX 8 1 9 2 10 3 11 4 12 5 27 6 28 7 7 8 4 9 5 10 36 11 6 12
REMARK SMILES IDX 35 13 2 14 1 15 3 16 29 18 30 19 34 20 31 21 33 22 32 23
REMARK SMILES IDX 13 24 14 25 26 26 15 27 16 28 17 29 18 30 25 31 19 32 24 33
REMARK SMILES IDX 20 34 21 35 22 36 23 37
REMARK H PARENT 3 17
ROOT
ATOM      1  N   UNL     1     134.178 137.140 148.985  1.00  0.00    -0.276 N 
ATOM      2  C   UNL     1     134.212 136.335 150.153  1.00  0.00     0.263 C 
ATOM      3  O   UNL     1     134.808 135.302 150.401  1.00  0.00    -0.268 OA
ATOM      4  C   UNL     1     133.334 137.065 151.128  1.00  0.00     0.046 C 
ATOM      5  C   UNL     1     133.145 136.590 152.366  1.00  0.00     0.061 C 
ATOM      6  C   UNL     1     132.850 138.240 150.459  1.00  0.00     0.041 C 
ATOM      7  C   UNL     1     133.360 138.250 149.217  1.00  0.00     0.057 C 
ENDROOT
BRANCH   1   8
ATOM      8  C   UNL     1     134.950 136.817 147.824  1.00  0.00     0.049 A 
ATOM      9  C   UNL     1     136.499 136.181 145.532  1.00  0.00     0.060 A 
ATOM     10  C   UNL     1     137.068 136.880 146.598  1.00  0.00     0.018 A 
ATOM     11  C   UNL     1     135.155 135.809 145.603  1.00  0.00     0.018 A 
ATOM     12  C   UNL     1     136.298 137.196 147.727  1.00  0.00     0.027 A 
ATOM     13  C   UNL     1     134.393 136.128 146.736  1.00  0.00     0.027 A 
BRANCH   9  14
ATOM     14  C   UNL     1     137.347 135.867 144.357  1.00  0.00     0.335 C 
ATOM     15  O   UNL     1     137.294 136.414 143.271  1.00  0.00    -0.246 OA
BRANCH  14  16
ATOM     16  O   UNL     1     138.229 134.881 144.599  1.00  0.00    -0.478 OA
ATOM     17  H   UNL     1     138.518 135.049 145.520  1.00  0.00     0.297 HD
ENDBRANCH  14  16
ENDBRANCH   9  14
ENDBRANCH   1   8
BRANCH   7  18
ATOM     18  C   UNL     1     132.952 139.258 148.237  1.00  0.00    -0.001 A 
ATOM     19  C   UNL     1     133.636 140.479 148.149  1.00  0.00     0.010 A 
ATOM     20  C   UNL     1     131.895 139.005 147.350  1.00  0.00     0.010 A 
ATOM     21  C   UNL     1     133.260 141.434 147.204  1.00  0.00     0.001 A 
ATOM     22  C   UNL     1     131.519 139.962 146.406  1.00  0.00     0.001 A 
ATOM     23  C   UNL     1     132.201 141.176 146.334  1.00  0.00     0.000 A 
ENDBRANCH   7  18
BRANCH   5  24
ATOM     24  C   UNL     1     132.326 137.193 153.358  1.00  0.00     0.128 A 
ATOM     25  C   UNL     1     132.621 138.077 154.388  1.00  0.00     0.051 A 
ATOM     26  O   UNL     1     130.965 136.983 153.385  1.00  0.00    -0.457 OA
ATOM     27  C   UNL     1     131.415 138.379 155.066  1.00  0.00     0.051 A 
ATOM     28  C   UNL     1     130.418 137.684 154.419  1.00  0.00     0.134 A 
BRANCH  28  29
ATOM     29  C   UNL     1     128.973 137.555 154.595  1.00  0.00     0.018 A 
ATOM     30  C   UNL     1     128.156 138.688 154.757  1.00  0.00     0.019 A 
ATOM     31  C   UNL     1     128.366 136.289 154.607  1.00  0.00     0.019 A 
ATOM     32  C   UNL     1     126.772 138.566 154.925  1.00  0.00     0.086 A 
ATOM     33  C   UNL     1     126.982 136.152 154.775  1.00  0.00     0.086 A 
ATOM     34  C   UNL     1     126.190 137.294 154.934  1.00  0.00     0.269 A 
BRANCH  34  35
ATOM     35  N   UNL     1     124.738 137.157 155.110  1.00  0.00     0.062 N 
ATOM     36  O   UNL     1     124.115 136.494 154.268  1.00  0.00    -0.258 OA
ATOM     37  O   UNL     1     124.223 137.710 156.093  1.00  0.00    -0.258 OA
ENDBRANCH  34  35
ENDBRANCH  28  29
ENDBRANCH   5  24
TORSDOF 7
ENDMDL
