MODEL 1
REMARK VINA RESULT:    -7.428      0.000      0.000
REMARK INTER + INTRA:          -9.085
REMARK INTER:                  -9.383
REMARK INTRA:                   0.297
REMARK UNBOUND:                 0.297
REMARK SMILES NS(=O)(=O)c1cc2c(cc1C(F)(F)F)N[C@@H](Cc1ccccc1)NS2(=O)=O
REMARK SMILES IDX 5 1 6 2 7 3 8 4 9 5 10 6 15 7 16 8 24 9 25 10 26 11 27 12
REMARK SMILES IDX 2 15 3 16 4 17 1 18 11 21 12 22 13 23 14 24 17 25 18 26
REMARK SMILES IDX 19 27 23 28 20 29 22 30 21 31
REMARK H PARENT 15 13 24 14 1 19 1 20
ROOT
ATOM      1  C   UNL     1     133.373 137.205 148.884  1.00  0.00     0.095 A 
ATOM      2  C   UNL     1     133.233 136.244 149.893  1.00  0.00     0.046 A 
ATOM      3  C   UNL     1     133.066 136.657 151.218  1.00  0.00     0.107 A 
ATOM      4  C   UNL     1     133.003 138.002 151.573  1.00  0.00     0.056 A 
ATOM      5  C   UNL     1     133.133 138.946 150.545  1.00  0.00     0.041 A 
ATOM      6  C   UNL     1     133.329 138.577 149.193  1.00  0.00     0.078 A 
ATOM      7  N   UNL     1     132.855 138.463 152.879  1.00  0.00    -0.368 N 
ATOM      8  C   UNL     1     132.942 137.530 153.989  1.00  0.00     0.166 C 
ATOM      9  N   UNL     1     132.144 136.362 153.697  1.00  0.00    -0.189 NA
ATOM     10  S   UNL     1     132.789 135.443 152.459  1.00  0.00     0.244 S 
ATOM     11  O   UNL     1     134.079 134.942 152.876  1.00  0.00    -0.207 OA
ATOM     12  O   UNL     1     131.728 134.574 152.002  1.00  0.00    -0.207 OA
ATOM     13  H   UNL     1     132.100 139.141 152.968  1.00  0.00     0.162 HD
ATOM     14  H   UNL     1     131.151 136.535 153.555  1.00  0.00     0.143 HD
ENDROOT
BRANCH   1  15
ATOM     15  S   UNL     1     133.560 136.631 147.211  1.00  0.00     0.238 S 
ATOM     16  O   UNL     1     134.964 136.569 146.897  1.00  0.00    -0.207 OA
ATOM     17  O   UNL     1     132.612 137.322 146.370  1.00  0.00    -0.207 OA
BRANCH  15  18
ATOM     18  N   UNL     1     132.995 135.061 147.332  1.00  0.00    -0.225 NA
ATOM     19  H   UNL     1     132.169 135.025 147.932  1.00  0.00     0.137 HD
ATOM     20  H   UNL     1     132.850 134.661 146.402  1.00  0.00     0.137 HD
ENDBRANCH  15  18
ENDBRANCH   1  15
BRANCH   6  21
ATOM     21  C   UNL     1     133.450 139.675 148.160  1.00  0.00     0.417 C 
ATOM     22  F   UNL     1     132.301 139.866 147.461  1.00  0.00    -0.166 F 
ATOM     23  F   UNL     1     134.447 139.488 147.254  1.00  0.00    -0.166 F 
ATOM     24  F   UNL     1     133.725 140.887 148.728  1.00  0.00    -0.166 F 
ENDBRANCH   6  21
BRANCH   8  25
ATOM     25  C   UNL     1     132.509 138.181 155.324  1.00  0.00     0.077 C 
BRANCH  25  26
ATOM     26  C   UNL     1     131.016 138.312 155.543  1.00  0.00    -0.045 A 
ATOM     27  C   UNL     1     130.137 138.361 154.450  1.00  0.00     0.004 A 
ATOM     28  C   UNL     1     130.489 138.385 156.840  1.00  0.00     0.004 A 
ATOM     29  C   UNL     1     128.760 138.458 154.654  1.00  0.00     0.000 A 
ATOM     30  C   UNL     1     129.112 138.482 157.042  1.00  0.00     0.000 A 
ATOM     31  C   UNL     1     128.248 138.514 155.949  1.00  0.00     0.000 A 
ENDBRANCH  25  26
ENDBRANCH   8  25
TORSDOF 5
ENDMDL
