MODEL 1
REMARK VINA RESULT:    -8.285      0.000      0.000
REMARK INTER + INTRA:          -8.285
REMARK INTER:                  -8.285
REMARK INTRA:                   0.000
REMARK UNBOUND:                 0.000
REMARK SMILES NC1=NC[C@@H]2c3ccccc3Cc3ccccc3N12
REMARK SMILES IDX 1 1 2 2 3 3 4 4 5 5 6 6 7 7 8 8 9 9 10 10 11 11 12 12 13 13
REMARK SMILES IDX 14 14 15 15 16 16 17 17 18 18 19 19
REMARK H PARENT 1 20 1 21
ROOT
ATOM      1  N   UNL     1     134.644 135.329 151.969  1.00  0.00    -0.369 N 
ATOM      2  C   UNL     1     133.368 135.274 152.410  1.00  0.00     0.196 C 
ATOM      3  N   UNL     1     132.627 134.229 152.139  1.00  0.00    -0.250 NA
ATOM      4  C   UNL     1     131.339 134.565 152.811  1.00  0.00     0.176 C 
ATOM      5  C   UNL     1     131.683 135.628 153.882  1.00  0.00     0.143 C 
ATOM      6  C   UNL     1     130.570 136.554 154.331  1.00  0.00    -0.020 A 
ATOM      7  C   UNL     1     129.254 136.475 153.850  1.00  0.00     0.006 A 
ATOM      8  C   UNL     1     128.256 137.321 154.344  1.00  0.00     0.000 A 
ATOM      9  C   UNL     1     128.553 138.254 155.330  1.00  0.00     0.000 A 
ATOM     10  C   UNL     1     129.849 138.344 155.830  1.00  0.00     0.004 A 
ATOM     11  C   UNL     1     130.856 137.497 155.343  1.00  0.00    -0.038 A 
ATOM     12  C   UNL     1     132.272 137.623 155.856  1.00  0.00     0.073 C 
ATOM     13  C   UNL     1     133.190 138.167 154.787  1.00  0.00    -0.020 A 
ATOM     14  C   UNL     1     133.811 139.411 155.042  1.00  0.00     0.006 A 
ATOM     15  C   UNL     1     134.624 140.019 154.093  1.00  0.00     0.000 A 
ATOM     16  C   UNL     1     134.814 139.401 152.869  1.00  0.00     0.002 A 
ATOM     17  C   UNL     1     134.207 138.167 152.613  1.00  0.00     0.027 A 
ATOM     18  C   UNL     1     133.406 137.493 153.562  1.00  0.00     0.048 A 
ATOM     19  N   UNL     1     132.857 136.243 153.244  1.00  0.00    -0.303 N 
ATOM     20  H   UNL     1     135.295 135.675 152.662  1.00  0.00     0.159 HD
ATOM     21  H   UNL     1     134.931 134.436 151.586  1.00  0.00     0.159 HD
ENDROOT
TORSDOF 0
ENDMDL
