MODEL 1
REMARK VINA RESULT:    -6.517      0.000      0.000
REMARK INTER + INTRA:         -13.839
REMARK INTER:                 -11.089
REMARK INTRA:                  -2.751
REMARK UNBOUND:                -2.751
REMARK SMILES C=C1/C(=C\C=C2/CCC[C@]3(C)[C@@H]([C@H](C)CCCC(C)(C)O)CC[C@@H]23)C[C@@H](O)[C@@H](OCCCO)[C@@H]1O
REMARK SMILES IDX 5 1 6 2 7 3 8 4 9 5 10 6 11 7 12 8 22 9 23 10 24 11 4 12
REMARK SMILES IDX 1 13 2 14 3 15 34 16 25 17 28 18 26 19 35 20 29 22 30 23
REMARK SMILES IDX 31 24 32 25 33 26 27 28 13 30 14 31 15 32 16 33 17 34 18 35
REMARK SMILES IDX 19 36 20 37 21 38
REMARK H PARENT 35 21 33 27 27 29 21 39
ROOT
ATOM      1  C   UNL     1     135.351 136.810 149.477  1.00  0.00    -0.000 C 
ATOM      2  C   UNL     1     135.378 137.601 150.568  1.00  0.00    -0.067 C 
ATOM      3  C   UNL     1     136.066 138.951 150.669  1.00  0.00     0.031 C 
ATOM      4  C   UNL     1     135.136 140.042 151.216  1.00  0.00     0.005 C 
ATOM      5  C   UNL     1     134.392 139.625 152.495  1.00  0.00     0.008 C 
ATOM      6  C   UNL     1     133.654 138.277 152.331  1.00  0.00    -0.023 C 
ATOM      7  C   UNL     1     132.491 138.422 151.319  1.00  0.00     0.012 C 
ATOM      8  C   UNL     1     133.171 137.619 153.662  1.00  0.00    -0.002 C 
ATOM      9  C   UNL     1     133.147 136.099 153.321  1.00  0.00     0.005 C 
ATOM     10  C   UNL     1     133.989 135.898 152.057  1.00  0.00     0.009 C 
ATOM     11  C   UNL     1     134.713 137.229 151.879  1.00  0.00     0.021 C 
ENDROOT
BRANCH   1  12
ATOM     12  C   UNL     1     135.987 137.065 148.200  1.00  0.00     0.004 C 
ATOM     13  C   UNL     1     133.428 138.843 147.751  1.00  0.00     0.015 C 
ATOM     14  C   UNL     1     134.002 137.948 146.929  1.00  0.00    -0.021 C 
ATOM     15  C   UNL     1     135.399 137.531 147.078  1.00  0.00    -0.040 C 
ATOM     16  C   UNL     1     133.346 137.361 145.691  1.00  0.00     0.175 C 
ATOM     17  C   UNL     1     136.206 137.613 145.792  1.00  0.00     0.070 C 
ATOM     18  C   UNL     1     134.084 137.763 144.385  1.00  0.00     0.180 C 
ATOM     19  C   UNL     1     135.474 138.373 144.676  1.00  0.00     0.150 C 
BRANCH  16  20
ATOM     20  O   UNL     1     131.971 137.750 145.592  1.00  0.00    -0.386 OA
ATOM     21  H   UNL     1     131.581 137.569 146.466  1.00  0.00     0.211 HD
ENDBRANCH  16  20
BRANCH  18  22
ATOM     22  O   UNL     1     134.316 136.598 143.547  1.00  0.00    -0.372 OA
BRANCH  22  23
ATOM     23  C   UNL     1     133.110 135.884 143.262  1.00  0.00     0.163 C 
BRANCH  23  24
ATOM     24  C   UNL     1     133.433 134.397 143.162  1.00  0.00     0.057 C 
BRANCH  24  25
ATOM     25  C   UNL     1     133.789 133.795 144.517  1.00  0.00     0.158 C 
BRANCH  25  26
ATOM     26  O   UNL     1     134.997 134.361 145.011  1.00  0.00    -0.396 OA
ATOM     27  H   UNL     1     134.872 134.532 145.961  1.00  0.00     0.210 HD
ENDBRANCH  25  26
ENDBRANCH  24  25
ENDBRANCH  23  24
ENDBRANCH  22  23
ENDBRANCH  18  22
BRANCH  19  28
ATOM     28  O   UNL     1     136.273 138.359 143.485  1.00  0.00    -0.390 OA
ATOM     29  H   UNL     1     136.251 137.429 143.180  1.00  0.00     0.211 HD
ENDBRANCH  19  28
ENDBRANCH   1  12
BRANCH   8  30
ATOM     30  C   UNL     1     131.835 138.086 154.317  1.00  0.00    -0.011 C 
ATOM     31  C   UNL     1     132.046 138.657 155.723  1.00  0.00     0.008 C 
BRANCH  30  32
ATOM     32  C   UNL     1     130.821 136.910 154.365  1.00  0.00     0.004 C 
BRANCH  32  33
ATOM     33  C   UNL     1     129.366 137.344 154.597  1.00  0.00     0.003 C 
BRANCH  33  34
ATOM     34  C   UNL     1     128.408 136.159 154.427  1.00  0.00     0.034 C 
BRANCH  34  35
ATOM     35  C   UNL     1     127.350 135.997 155.539  1.00  0.00     0.059 C 
ATOM     36  C   UNL     1     125.962 135.689 154.977  1.00  0.00     0.042 C 
ATOM     37  C   UNL     1     127.289 137.210 156.471  1.00  0.00     0.042 C 
BRANCH  35  38
ATOM     38  O   UNL     1     127.733 134.863 156.329  1.00  0.00    -0.390 OA
ATOM     39  H   UNL     1     128.068 134.178 155.727  1.00  0.00     0.211 HD
ENDBRANCH  35  38
ENDBRANCH  34  35
ENDBRANCH  33  34
ENDBRANCH  32  33
ENDBRANCH  30  32
ENDBRANCH   8  30
TORSDOF 14
ENDMDL
