MODEL 1
REMARK VINA RESULT:    -6.646      0.000      0.000
REMARK INTER + INTRA:         -14.101
REMARK INTER:                 -11.308
REMARK INTRA:                  -2.793
REMARK UNBOUND:                -2.793
REMARK SMILES C=C1/C(=C\C=C2/CCC[C@]3(C)[C@@H]([C@H](C)CCCC(C)(C)O)CC[C@@H]23)C[C@@H](O)[C@@H](OCCCO)[C@@H]1O
REMARK SMILES IDX 5 1 6 2 7 3 8 4 9 5 10 6 11 7 12 8 22 9 23 10 24 11 4 12
REMARK SMILES IDX 1 13 2 14 3 15 34 16 25 17 28 18 26 19 35 20 29 22 30 23
REMARK SMILES IDX 31 24 32 25 33 26 27 28 13 30 14 31 15 32 16 33 17 34 18 35
REMARK SMILES IDX 19 36 20 37 21 38
REMARK H PARENT 35 21 33 27 27 29 21 39
ROOT
ATOM      1  C   UNL     1     135.252 136.806 149.548  1.00  0.00    -0.000 C 
ATOM      2  C   UNL     1     135.293 137.575 150.653  1.00  0.00    -0.067 C 
ATOM      3  C   UNL     1     136.016 138.904 150.785  1.00  0.00     0.031 C 
ATOM      4  C   UNL     1     135.113 140.008 151.347  1.00  0.00     0.005 C 
ATOM      5  C   UNL     1     134.350 139.587 152.613  1.00  0.00     0.008 C 
ATOM      6  C   UNL     1     133.577 138.263 152.418  1.00  0.00    -0.023 C 
ATOM      7  C   UNL     1     132.425 138.459 151.403  1.00  0.00     0.012 C 
ATOM      8  C   UNL     1     133.067 137.592 153.734  1.00  0.00    -0.002 C 
ATOM      9  C   UNL     1     133.005 136.081 153.363  1.00  0.00     0.005 C 
ATOM     10  C   UNL     1     133.849 135.881 152.101  1.00  0.00     0.009 C 
ATOM     11  C   UNL     1     134.610 137.195 151.953  1.00  0.00     0.021 C 
ENDROOT
BRANCH   1  12
ATOM     12  C   UNL     1     135.903 137.068 148.279  1.00  0.00     0.004 C 
ATOM     13  C   UNL     1     133.360 138.867 147.819  1.00  0.00     0.015 C 
ATOM     14  C   UNL     1     133.937 137.975 146.996  1.00  0.00    -0.021 C 
ATOM     15  C   UNL     1     135.330 137.548 147.155  1.00  0.00    -0.040 C 
ATOM     16  C   UNL     1     133.290 137.404 145.746  1.00  0.00     0.175 C 
ATOM     17  C   UNL     1     136.151 137.636 145.879  1.00  0.00     0.070 C 
ATOM     18  C   UNL     1     134.045 137.813 144.451  1.00  0.00     0.180 C 
ATOM     19  C   UNL     1     135.436 138.410 144.762  1.00  0.00     0.150 C 
BRANCH  16  20
ATOM     20  O   UNL     1     131.919 137.803 145.636  1.00  0.00    -0.386 OA
ATOM     21  H   UNL     1     131.789 138.492 146.312  1.00  0.00     0.211 HD
ENDBRANCH  16  20
BRANCH  18  22
ATOM     22  O   UNL     1     134.277 136.654 143.605  1.00  0.00    -0.372 OA
BRANCH  22  23
ATOM     23  C   UNL     1     133.077 135.919 143.346  1.00  0.00     0.163 C 
BRANCH  23  24
ATOM     24  C   UNL     1     133.427 134.441 143.211  1.00  0.00     0.057 C 
BRANCH  24  25
ATOM     25  C   UNL     1     133.728 133.798 144.560  1.00  0.00     0.158 C 
BRANCH  25  26
ATOM     26  O   UNL     1     134.917 134.345 145.119  1.00  0.00    -0.396 OA
ATOM     27  H   UNL     1     135.649 134.129 144.517  1.00  0.00     0.210 HD
ENDBRANCH  25  26
ENDBRANCH  24  25
ENDBRANCH  23  24
ENDBRANCH  22  23
ENDBRANCH  18  22
BRANCH  19  28
ATOM     28  O   UNL     1     136.246 138.402 143.579  1.00  0.00    -0.390 OA
ATOM     29  H   UNL     1     137.121 138.081 143.879  1.00  0.00     0.211 HD
ENDBRANCH  19  28
ENDBRANCH   1  12
BRANCH   8  30
ATOM     30  C   UNL     1     131.740 138.083 154.390  1.00  0.00    -0.011 C 
ATOM     31  C   UNL     1     131.959 138.631 155.804  1.00  0.00     0.008 C 
BRANCH  30  32
ATOM     32  C   UNL     1     130.698 136.931 154.419  1.00  0.00     0.004 C 
BRANCH  32  33
ATOM     33  C   UNL     1     129.238 137.406 154.451  1.00  0.00     0.003 C 
BRANCH  33  34
ATOM     34  C   UNL     1     128.275 136.226 154.270  1.00  0.00     0.034 C 
BRANCH  34  35
ATOM     35  C   UNL     1     127.315 135.968 155.450  1.00  0.00     0.059 C 
ATOM     36  C   UNL     1     125.906 135.603 154.982  1.00  0.00     0.042 C 
ATOM     37  C   UNL     1     127.261 137.142 156.430  1.00  0.00     0.042 C 
BRANCH  35  38
ATOM     38  O   UNL     1     127.816 134.830 156.166  1.00  0.00    -0.390 OA
ATOM     39  H   UNL     1     127.577 134.032 155.665  1.00  0.00     0.211 HD
ENDBRANCH  35  38
ENDBRANCH  34  35
ENDBRANCH  33  34
ENDBRANCH  32  33
ENDBRANCH  30  32
ENDBRANCH   8  30
TORSDOF 14
ENDMDL
