MODEL 1
REMARK VINA RESULT:    -7.780      0.000      0.000
REMARK INTER + INTRA:          -9.491
REMARK INTER:                  -9.827
REMARK INTRA:                   0.335
REMARK UNBOUND:                 0.335
REMARK SMILES NS(=O)(=O)c1cc2c(cc1C(F)(F)F)N[C@@H](Cc1ccccc1)NS2(=O)=O
REMARK SMILES IDX 5 1 6 2 7 3 8 4 9 5 10 6 15 7 16 8 24 9 25 10 26 11 27 12
REMARK SMILES IDX 2 15 3 16 4 17 1 18 11 21 12 22 13 23 14 24 17 25 18 26
REMARK SMILES IDX 19 27 23 28 20 29 22 30 21 31
REMARK H PARENT 15 13 24 14 1 19 1 20
ROOT
ATOM      1  C   UNL     1     133.358 137.210 148.871  1.00  0.00     0.095 A 
ATOM      2  C   UNL     1     133.232 136.241 149.875  1.00  0.00     0.046 A 
ATOM      3  C   UNL     1     133.082 136.645 151.205  1.00  0.00     0.107 A 
ATOM      4  C   UNL     1     133.021 137.987 151.570  1.00  0.00     0.056 A 
ATOM      5  C   UNL     1     133.136 138.939 150.548  1.00  0.00     0.041 A 
ATOM      6  C   UNL     1     133.315 138.579 149.191  1.00  0.00     0.078 A 
ATOM      7  N   UNL     1     132.889 138.439 152.882  1.00  0.00    -0.368 N 
ATOM      8  C   UNL     1     132.993 137.499 153.983  1.00  0.00     0.166 C 
ATOM      9  N   UNL     1     132.193 136.330 153.694  1.00  0.00    -0.189 NA
ATOM     10  S   UNL     1     132.824 135.422 152.441  1.00  0.00     0.244 S 
ATOM     11  O   UNL     1     134.120 134.920 152.838  1.00  0.00    -0.207 OA
ATOM     12  O   UNL     1     131.758 134.554 151.992  1.00  0.00    -0.207 OA
ATOM     13  H   UNL     1     132.135 139.115 152.985  1.00  0.00     0.162 HD
ATOM     14  H   UNL     1     131.198 136.503 153.566  1.00  0.00     0.143 HD
ENDROOT
BRANCH   1  15
ATOM     15  S   UNL     1     133.524 136.648 147.192  1.00  0.00     0.238 S 
ATOM     16  O   UNL     1     134.924 136.587 146.861  1.00  0.00    -0.207 OA
ATOM     17  O   UNL     1     132.566 137.346 146.368  1.00  0.00    -0.207 OA
BRANCH  15  18
ATOM     18  N   UNL     1     132.959 135.078 147.309  1.00  0.00    -0.225 NA
ATOM     19  H   UNL     1     133.567 134.441 146.790  1.00  0.00     0.137 HD
ATOM     20  H   UNL     1     132.826 134.818 148.289  1.00  0.00     0.137 HD
ENDBRANCH  15  18
ENDBRANCH   1  15
BRANCH   6  21
ATOM     21  C   UNL     1     133.421 139.685 148.163  1.00  0.00     0.417 C 
ATOM     22  F   UNL     1     132.260 139.885 147.487  1.00  0.00    -0.166 F 
ATOM     23  F   UNL     1     134.401 139.502 147.238  1.00  0.00    -0.166 F 
ATOM     24  F   UNL     1     133.710 140.892 148.735  1.00  0.00    -0.166 F 
ENDBRANCH   6  21
BRANCH   8  25
ATOM     25  C   UNL     1     132.576 138.139 155.329  1.00  0.00     0.077 C 
BRANCH  25  26
ATOM     26  C   UNL     1     131.086 138.282 155.560  1.00  0.00    -0.045 A 
ATOM     27  C   UNL     1     130.195 138.292 154.477  1.00  0.00     0.004 A 
ATOM     28  C   UNL     1     130.575 138.406 156.860  1.00  0.00     0.004 A 
ATOM     29  C   UNL     1     128.820 138.400 154.693  1.00  0.00     0.000 A 
ATOM     30  C   UNL     1     129.200 138.514 157.074  1.00  0.00     0.000 A 
ATOM     31  C   UNL     1     128.324 138.508 155.991  1.00  0.00     0.000 A 
ENDBRANCH  25  26
ENDBRANCH   8  25
TORSDOF 5
ENDMDL
