MODEL 1
REMARK VINA RESULT:    -7.438      0.000      0.000
REMARK INTER + INTRA:          -9.084
REMARK INTER:                  -9.394
REMARK INTRA:                   0.311
REMARK UNBOUND:                 0.311
REMARK SMILES NS(=O)(=O)c1cc2c(cc1C(F)(F)F)N[C@@H](Cc1ccccc1)NS2(=O)=O
REMARK SMILES IDX 5 1 6 2 7 3 8 4 9 5 10 6 15 7 16 8 24 9 25 10 26 11 27 12
REMARK SMILES IDX 2 15 3 16 4 17 1 18 11 21 12 22 13 23 14 24 17 25 18 26
REMARK SMILES IDX 19 27 23 28 20 29 22 30 21 31
REMARK H PARENT 15 13 24 14 1 19 1 20
ROOT
ATOM      1  C   UNL     1     133.364 137.210 148.899  1.00  0.00     0.095 A 
ATOM      2  C   UNL     1     133.220 136.248 149.906  1.00  0.00     0.046 A 
ATOM      3  C   UNL     1     133.055 136.660 151.232  1.00  0.00     0.107 A 
ATOM      4  C   UNL     1     132.997 138.005 151.589  1.00  0.00     0.056 A 
ATOM      5  C   UNL     1     133.130 138.950 150.563  1.00  0.00     0.041 A 
ATOM      6  C   UNL     1     133.324 138.581 149.210  1.00  0.00     0.078 A 
ATOM      7  N   UNL     1     132.850 138.464 152.896  1.00  0.00    -0.368 N 
ATOM      8  C   UNL     1     132.935 137.530 154.004  1.00  0.00     0.166 C 
ATOM      9  N   UNL     1     132.132 136.364 153.712  1.00  0.00    -0.189 NA
ATOM     10  S   UNL     1     132.774 135.445 152.471  1.00  0.00     0.244 S 
ATOM     11  O   UNL     1     134.063 134.939 152.888  1.00  0.00    -0.207 OA
ATOM     12  O   UNL     1     131.710 134.581 152.014  1.00  0.00    -0.207 OA
ATOM     13  H   UNL     1     132.098 139.145 152.986  1.00  0.00     0.162 HD
ATOM     14  H   UNL     1     131.141 136.541 153.569  1.00  0.00     0.143 HD
ENDROOT
BRANCH   1  15
ATOM     15  S   UNL     1     133.548 136.637 147.226  1.00  0.00     0.238 S 
ATOM     16  O   UNL     1     134.952 136.572 146.911  1.00  0.00    -0.207 OA
ATOM     17  O   UNL     1     132.602 137.332 146.385  1.00  0.00    -0.207 OA
BRANCH  15  18
ATOM     18  N   UNL     1     132.979 135.069 147.345  1.00  0.00    -0.225 NA
ATOM     19  H   UNL     1     132.954 134.628 146.423  1.00  0.00     0.137 HD
ATOM     20  H   UNL     1     133.518 134.546 148.040  1.00  0.00     0.137 HD
ENDBRANCH  15  18
ENDBRANCH   1  15
BRANCH   6  21
ATOM     21  C   UNL     1     133.449 139.681 148.178  1.00  0.00     0.417 C 
ATOM     22  F   UNL     1     132.298 139.882 147.486  1.00  0.00    -0.166 F 
ATOM     23  F   UNL     1     134.440 139.487 147.267  1.00  0.00    -0.166 F 
ATOM     24  F   UNL     1     133.737 140.889 148.747  1.00  0.00    -0.166 F 
ENDBRANCH   6  21
BRANCH   8  25
ATOM     25  C   UNL     1     132.504 138.180 155.341  1.00  0.00     0.077 C 
BRANCH  25  26
ATOM     26  C   UNL     1     131.012 138.312 155.561  1.00  0.00    -0.045 A 
ATOM     27  C   UNL     1     130.130 138.347 154.471  1.00  0.00     0.004 A 
ATOM     28  C   UNL     1     130.488 138.400 156.859  1.00  0.00     0.004 A 
ATOM     29  C   UNL     1     128.753 138.445 154.677  1.00  0.00     0.000 A 
ATOM     30  C   UNL     1     129.111 138.497 157.063  1.00  0.00     0.000 A 
ATOM     31  C   UNL     1     128.244 138.516 155.972  1.00  0.00     0.000 A 
ENDBRANCH  25  26
ENDBRANCH   8  25
TORSDOF 5
ENDMDL
