MODEL 1
REMARK VINA RESULT:    -7.493      0.000      0.000
REMARK INTER + INTRA:         -10.219
REMARK INTER:                  -9.245
REMARK INTRA:                  -0.974
REMARK UNBOUND:                -0.974
REMARK SMILES C[C@@H](C(=O)Nc1ccc(Cl)cc1)[C@H]1CC[C@@H](c2ccnc3ccc(F)cc32)CC1
REMARK SMILES IDX 1 1 2 2 3 3 4 4 5 5 6 7 7 8 12 9 8 10 11 11 9 12 10 13 13 14
REMARK SMILES IDX 29 15 14 16 28 17 15 18 16 19 17 20 18 21 27 22 19 23 26 24
REMARK SMILES IDX 21 25 20 26 24 27 22 28 23 29 25 30
REMARK H PARENT 5 6
ROOT
ATOM      1  C   UNL     1     135.477 136.148 151.468  1.00  0.00     0.018 C 
ATOM      2  C   UNL     1     135.069 137.513 150.901  1.00  0.00     0.079 C 
ENDROOT
BRANCH   2   3
ATOM      3  C   UNL     1     135.963 137.855 149.701  1.00  0.00     0.227 C 
ATOM      4  O   UNL     1     136.998 138.491 149.877  1.00  0.00    -0.274 OA
ATOM      5  N   UNL     1     135.478 137.400 148.489  1.00  0.00    -0.326 N 
ATOM      6  H   UNL     1     134.608 136.884 148.510  1.00  0.00     0.169 HD
BRANCH   5   7
ATOM      7  C   UNL     1     136.055 137.569 147.214  1.00  0.00     0.041 A 
ATOM      8  C   UNL     1     135.408 138.446 146.332  1.00  0.00     0.027 A 
ATOM      9  C   UNL     1     137.218 136.922 146.788  1.00  0.00     0.027 A 
ATOM     10  C   UNL     1     135.915 138.671 145.047  1.00  0.00     0.022 A 
ATOM     11  C   UNL     1     137.727 137.146 145.503  1.00  0.00     0.022 A 
ATOM     12  C   UNL     1     137.074 138.019 144.639  1.00  0.00     0.041 A 
ATOM     13  Cl  UNL     1     137.700 138.295 143.061  1.00  0.00    -0.084 Cl
ENDBRANCH   5   7
ENDBRANCH   2   3
BRANCH   2  14
ATOM     14  C   UNL     1     133.555 137.602 150.547  1.00  0.00     0.001 C 
ATOM     15  C   UNL     1     132.719 136.476 151.185  1.00  0.00     0.005 C 
ATOM     16  C   UNL     1     132.931 138.958 150.941  1.00  0.00     0.005 C 
ATOM     17  C   UNL     1     132.581 136.618 152.702  1.00  0.00     0.009 C 
ATOM     18  C   UNL     1     132.810 139.134 152.456  1.00  0.00     0.009 C 
ATOM     19  C   UNL     1     131.998 137.987 153.093  1.00  0.00     0.020 C 
BRANCH  19  20
ATOM     20  C   UNL     1     131.830 138.082 154.608  1.00  0.00    -0.034 A 
ATOM     21  C   UNL     1     132.947 137.956 155.444  1.00  0.00     0.025 A 
ATOM     22  C   UNL     1     130.551 138.255 155.219  1.00  0.00     0.007 A 
ATOM     23  C   UNL     1     132.780 138.043 156.813  1.00  0.00     0.112 A 
ATOM     24  C   UNL     1     129.327 138.346 154.512  1.00  0.00     0.049 A 
ATOM     25  C   UNL     1     130.504 138.331 156.637  1.00  0.00     0.071 A 
ATOM     26  N   UNL     1     131.591 138.233 157.413  1.00  0.00    -0.256 NA
ATOM     27  C   UNL     1     128.123 138.521 155.184  1.00  0.00     0.123 A 
ATOM     28  C   UNL     1     129.282 138.508 157.274  1.00  0.00     0.032 A 
ATOM     29  C   UNL     1     128.087 138.606 156.562  1.00  0.00     0.041 A 
ATOM     30  F   UNL     1     126.984 138.603 154.485  1.00  0.00    -0.207 F 
ENDBRANCH  19  20
ENDBRANCH   2  14
TORSDOF 4
ENDMDL
