MODEL 1
REMARK VINA RESULT:    -7.779      0.000      0.000
REMARK INTER + INTRA:          -9.491
REMARK INTER:                  -9.825
REMARK INTRA:                   0.334
REMARK UNBOUND:                 0.334
REMARK SMILES NS(=O)(=O)c1cc2c(cc1C(F)(F)F)N[C@@H](Cc1ccccc1)NS2(=O)=O
REMARK SMILES IDX 5 1 6 2 7 3 8 4 9 5 10 6 15 7 16 8 24 9 25 10 26 11 27 12
REMARK SMILES IDX 2 15 3 16 4 17 1 18 11 21 12 22 13 23 14 24 17 25 18 26
REMARK SMILES IDX 19 27 23 28 20 29 22 30 21 31
REMARK H PARENT 15 13 24 14 1 19 1 20
ROOT
ATOM      1  C   UNL     1     133.361 137.210 148.870  1.00  0.00     0.095 A 
ATOM      2  C   UNL     1     133.236 136.243 149.875  1.00  0.00     0.046 A 
ATOM      3  C   UNL     1     133.082 136.647 151.204  1.00  0.00     0.107 A 
ATOM      4  C   UNL     1     133.019 137.990 151.568  1.00  0.00     0.056 A 
ATOM      5  C   UNL     1     133.134 138.941 150.544  1.00  0.00     0.041 A 
ATOM      6  C   UNL     1     133.316 138.580 149.188  1.00  0.00     0.078 A 
ATOM      7  N   UNL     1     132.885 138.443 152.879  1.00  0.00    -0.368 N 
ATOM      8  C   UNL     1     132.988 137.504 153.982  1.00  0.00     0.166 C 
ATOM      9  N   UNL     1     132.190 136.334 153.692  1.00  0.00    -0.189 NA
ATOM     10  S   UNL     1     132.824 135.425 152.441  1.00  0.00     0.244 S 
ATOM     11  O   UNL     1     134.120 134.926 152.841  1.00  0.00    -0.207 OA
ATOM     12  O   UNL     1     131.761 134.556 151.991  1.00  0.00    -0.207 OA
ATOM     13  H   UNL     1     132.129 139.118 152.980  1.00  0.00     0.162 HD
ATOM     14  H   UNL     1     131.196 136.505 153.562  1.00  0.00     0.143 HD
ENDROOT
BRANCH   1  15
ATOM     15  S   UNL     1     133.530 136.647 147.192  1.00  0.00     0.238 S 
ATOM     16  O   UNL     1     134.931 136.588 146.862  1.00  0.00    -0.207 OA
ATOM     17  O   UNL     1     132.573 137.342 146.365  1.00  0.00    -0.207 OA
BRANCH  15  18
ATOM     18  N   UNL     1     132.968 135.075 147.309  1.00  0.00    -0.225 NA
ATOM     19  H   UNL     1     132.109 135.045 147.861  1.00  0.00     0.137 HD
ATOM     20  H   UNL     1     132.879 134.658 146.380  1.00  0.00     0.137 HD
ENDBRANCH  15  18
ENDBRANCH   1  15
BRANCH   6  21
ATOM     21  C   UNL     1     133.421 139.685 148.160  1.00  0.00     0.417 C 
ATOM     22  F   UNL     1     132.262 139.881 147.480  1.00  0.00    -0.166 F 
ATOM     23  F   UNL     1     134.404 139.503 147.237  1.00  0.00    -0.166 F 
ATOM     24  F   UNL     1     133.706 140.893 148.731  1.00  0.00    -0.166 F 
ENDBRANCH   6  21
BRANCH   8  25
ATOM     25  C   UNL     1     132.568 138.145 155.326  1.00  0.00     0.077 C 
BRANCH  25  26
ATOM     26  C   UNL     1     131.078 138.287 155.554  1.00  0.00    -0.045 A 
ATOM     27  C   UNL     1     130.188 138.298 154.469  1.00  0.00     0.004 A 
ATOM     28  C   UNL     1     130.564 138.409 156.853  1.00  0.00     0.004 A 
ATOM     29  C   UNL     1     128.813 138.405 154.683  1.00  0.00     0.000 A 
ATOM     30  C   UNL     1     129.189 138.516 157.065  1.00  0.00     0.000 A 
ATOM     31  C   UNL     1     128.314 138.510 155.980  1.00  0.00     0.000 A 
ENDBRANCH  25  26
ENDBRANCH   8  25
TORSDOF 5
ENDMDL
