MODEL 1
REMARK VINA RESULT:    -7.723      0.000      0.000
REMARK INTER + INTRA:         -10.401
REMARK INTER:                  -9.529
REMARK INTRA:                  -0.872
REMARK UNBOUND:                -0.872
REMARK SMILES C[C@@H](C(=O)Nc1ccc(Cl)cc1)[C@H]1CC[C@@H](c2ccnc3ccc(F)cc32)CC1
REMARK SMILES IDX 1 1 2 2 3 3 4 4 5 5 6 7 7 8 12 9 8 10 11 11 9 12 10 13 13 14
REMARK SMILES IDX 29 15 14 16 28 17 15 18 16 19 17 20 18 21 27 22 19 23 26 24
REMARK SMILES IDX 21 25 20 26 24 27 22 28 23 29 25 30
REMARK H PARENT 5 6
ROOT
ATOM      1  C   UNL     1     132.937 137.022 155.665  1.00  0.00     0.018 C 
ATOM      2  C   UNL     1     132.492 137.379 154.242  1.00  0.00     0.079 C 
ENDROOT
BRANCH   2   3
ATOM      3  C   UNL     1     131.047 136.909 154.026  1.00  0.00     0.227 C 
ATOM      4  O   UNL     1     130.804 136.068 153.166  1.00  0.00    -0.274 OA
ATOM      5  N   UNL     1     130.125 137.523 154.854  1.00  0.00    -0.326 N 
ATOM      6  H   UNL     1     130.484 138.195 155.518  1.00  0.00     0.169 HD
BRANCH   5   7
ATOM      7  C   UNL     1     128.730 137.321 154.886  1.00  0.00     0.041 A 
ATOM      8  C   UNL     1     127.918 138.462 154.806  1.00  0.00     0.027 A 
ATOM      9  C   UNL     1     128.121 136.067 154.989  1.00  0.00     0.027 A 
ATOM     10  C   UNL     1     126.524 138.350 154.831  1.00  0.00     0.022 A 
ATOM     11  C   UNL     1     126.726 135.954 155.012  1.00  0.00     0.022 A 
ATOM     12  C   UNL     1     125.934 137.094 154.934  1.00  0.00     0.041 A 
ATOM     13  Cl  UNL     1     124.220 136.954 154.963  1.00  0.00    -0.084 Cl
ENDBRANCH   5   7
ENDBRANCH   2   3
BRANCH   2  14
ATOM     14  C   UNL     1     132.673 138.889 153.905  1.00  0.00     0.001 C 
ATOM     15  C   UNL     1     134.151 139.305 153.774  1.00  0.00     0.005 C 
ATOM     16  C   UNL     1     131.932 139.303 152.615  1.00  0.00     0.005 C 
ATOM     17  C   UNL     1     134.826 138.736 152.524  1.00  0.00     0.009 C 
ATOM     18  C   UNL     1     132.572 138.720 151.353  1.00  0.00     0.009 C 
ATOM     19  C   UNL     1     134.060 139.115 151.245  1.00  0.00     0.020 C 
BRANCH  19  20
ATOM     20  C   UNL     1     134.781 138.572 150.012  1.00  0.00    -0.034 A 
ATOM     21  C   UNL     1     135.860 137.692 150.165  1.00  0.00     0.025 A 
ATOM     22  C   UNL     1     134.418 138.966 148.688  1.00  0.00     0.007 A 
ATOM     23  C   UNL     1     136.502 137.210 149.040  1.00  0.00     0.112 A 
ATOM     24  C   UNL     1     133.386 139.884 148.375  1.00  0.00     0.049 A 
ATOM     25  C   UNL     1     135.152 138.402 147.610  1.00  0.00     0.071 A 
ATOM     26  N   UNL     1     136.164 137.542 147.782  1.00  0.00    -0.256 NA
ATOM     27  C   UNL     1     133.092 140.210 147.056  1.00  0.00     0.123 A 
ATOM     28  C   UNL     1     134.828 138.750 146.304  1.00  0.00     0.032 A 
ATOM     29  C   UNL     1     133.802 139.648 146.013  1.00  0.00     0.041 A 
ATOM     30  F   UNL     1     132.110 141.082 146.796  1.00  0.00    -0.207 F 
ENDBRANCH  19  20
ENDBRANCH   2  14
TORSDOF 4
ENDMDL
