MODEL 1
REMARK VINA RESULT:    -7.462      0.000      0.000
REMARK INTER + INTRA:         -10.220
REMARK INTER:                  -9.207
REMARK INTRA:                  -1.013
REMARK UNBOUND:                -1.013
REMARK SMILES C[C@@H](C(=O)Nc1ccc(Cl)cc1)[C@H]1CC[C@@H](c2ccnc3ccc(F)cc32)CC1
REMARK SMILES IDX 1 1 2 2 3 3 4 4 5 5 6 7 7 8 12 9 8 10 11 11 9 12 10 13 13 14
REMARK SMILES IDX 29 15 14 16 28 17 15 18 16 19 17 20 18 21 27 22 19 23 26 24
REMARK SMILES IDX 21 25 20 26 24 27 22 28 23 29 25 30
REMARK H PARENT 5 6
ROOT
ATOM      1  C   UNL     1     135.462 136.104 151.402  1.00  0.00     0.018 C 
ATOM      2  C   UNL     1     135.066 137.489 150.876  1.00  0.00     0.079 C 
ENDROOT
BRANCH   2   3
ATOM      3  C   UNL     1     135.960 137.857 149.685  1.00  0.00     0.227 C 
ATOM      4  O   UNL     1     136.958 138.549 149.865  1.00  0.00    -0.274 OA
ATOM      5  N   UNL     1     135.519 137.358 148.473  1.00  0.00    -0.326 N 
ATOM      6  H   UNL     1     134.678 136.797 148.489  1.00  0.00     0.169 HD
BRANCH   5   7
ATOM      7  C   UNL     1     136.108 137.535 147.204  1.00  0.00     0.041 A 
ATOM      8  C   UNL     1     135.477 138.431 146.328  1.00  0.00     0.027 A 
ATOM      9  C   UNL     1     137.266 136.880 146.779  1.00  0.00     0.027 A 
ATOM     10  C   UNL     1     135.996 138.666 145.050  1.00  0.00     0.022 A 
ATOM     11  C   UNL     1     137.787 137.115 145.500  1.00  0.00     0.022 A 
ATOM     12  C   UNL     1     137.151 138.005 144.643  1.00  0.00     0.041 A 
ATOM     13  Cl  UNL     1     137.792 138.293 143.072  1.00  0.00    -0.084 Cl
ENDBRANCH   5   7
ENDBRANCH   2   3
BRANCH   2  14
ATOM     14  C   UNL     1     133.552 137.602 150.529  1.00  0.00     0.001 C 
ATOM     15  C   UNL     1     132.701 136.489 151.169  1.00  0.00     0.005 C 
ATOM     16  C   UNL     1     132.951 138.968 150.927  1.00  0.00     0.005 C 
ATOM     17  C   UNL     1     132.571 136.631 152.686  1.00  0.00     0.009 C 
ATOM     18  C   UNL     1     132.840 139.144 152.443  1.00  0.00     0.009 C 
ATOM     19  C   UNL     1     132.012 138.009 153.081  1.00  0.00     0.020 C 
BRANCH  19  20
ATOM     20  C   UNL     1     131.852 138.104 154.597  1.00  0.00    -0.034 A 
ATOM     21  C   UNL     1     132.975 137.993 155.427  1.00  0.00     0.025 A 
ATOM     22  C   UNL     1     130.574 138.263 155.216  1.00  0.00     0.007 A 
ATOM     23  C   UNL     1     132.815 138.080 156.796  1.00  0.00     0.112 A 
ATOM     24  C   UNL     1     129.345 138.339 154.516  1.00  0.00     0.049 A 
ATOM     25  C   UNL     1     130.535 138.341 156.633  1.00  0.00     0.071 A 
ATOM     26  N   UNL     1     131.627 138.257 157.403  1.00  0.00    -0.256 NA
ATOM     27  C   UNL     1     128.143 138.500 155.195  1.00  0.00     0.123 A 
ATOM     28  C   UNL     1     129.314 138.504 157.277  1.00  0.00     0.032 A 
ATOM     29  C   UNL     1     128.114 138.587 156.573  1.00  0.00     0.041 A 
ATOM     30  F   UNL     1     126.999 138.568 154.502  1.00  0.00    -0.207 F 
ENDBRANCH  19  20
ENDBRANCH   2  14
TORSDOF 4
ENDMDL
