MODEL 1
REMARK VINA RESULT:    -6.975      0.000      0.000
REMARK INTER + INTRA:         -11.999
REMARK INTER:                  -9.625
REMARK INTRA:                  -2.374
REMARK UNBOUND:                -2.374
REMARK SMILES O=C(O)c1ccc(N2C(=O)/C(=C/c3ccc(-c4ccc([N+](=O)[O-])cc4)o3)C=C2c2ccccc2)cc1
REMARK SMILES IDX 8 1 9 2 10 3 11 4 12 5 27 6 28 7 7 8 4 9 5 10 36 11 6 12
REMARK SMILES IDX 35 13 2 14 1 15 3 16 29 18 30 19 34 20 31 21 33 22 32 23
REMARK SMILES IDX 13 24 14 25 26 26 15 27 16 28 17 29 18 30 25 31 19 32 24 33
REMARK SMILES IDX 20 34 21 35 22 36 23 37
REMARK H PARENT 3 17
ROOT
ATOM      1  N   UNL     1     134.194 137.155 149.008  1.00  0.00    -0.276 N 
ATOM      2  C   UNL     1     134.230 136.354 150.180  1.00  0.00     0.263 C 
ATOM      3  O   UNL     1     134.831 135.326 150.433  1.00  0.00    -0.268 OA
ATOM      4  C   UNL     1     133.343 137.082 151.149  1.00  0.00     0.046 C 
ATOM      5  C   UNL     1     133.154 136.611 152.388  1.00  0.00     0.061 C 
ATOM      6  C   UNL     1     132.855 138.252 150.474  1.00  0.00     0.041 C 
ATOM      7  C   UNL     1     133.368 138.261 149.234  1.00  0.00     0.057 C 
ENDROOT
BRANCH   1   8
ATOM      8  C   UNL     1     134.972 136.833 147.851  1.00  0.00     0.049 A 
ATOM      9  C   UNL     1     136.497 136.188 145.546  1.00  0.00     0.060 A 
ATOM     10  C   UNL     1     135.159 135.802 145.639  1.00  0.00     0.018 A 
ATOM     11  C   UNL     1     137.079 136.885 146.606  1.00  0.00     0.018 A 
ATOM     12  C   UNL     1     134.410 136.119 146.781  1.00  0.00     0.027 A 
ATOM     13  C   UNL     1     136.322 137.199 147.744  1.00  0.00     0.027 A 
BRANCH   9  14
ATOM     14  C   UNL     1     137.255 135.833 144.321  1.00  0.00     0.335 C 
ATOM     15  O   UNL     1     137.184 136.403 143.249  1.00  0.00    -0.246 OA
BRANCH  14  16
ATOM     16  O   UNL     1     138.070 134.778 144.499  1.00  0.00    -0.478 OA
ATOM     17  H   UNL     1     137.648 134.068 143.971  1.00  0.00     0.297 HD
ENDBRANCH  14  16
ENDBRANCH   9  14
ENDBRANCH   1   8
BRANCH   7  18
ATOM     18  C   UNL     1     132.957 139.263 148.249  1.00  0.00    -0.001 A 
ATOM     19  C   UNL     1     133.638 140.485 148.154  1.00  0.00     0.010 A 
ATOM     20  C   UNL     1     131.901 139.001 147.363  1.00  0.00     0.010 A 
ATOM     21  C   UNL     1     133.259 141.434 147.204  1.00  0.00     0.001 A 
ATOM     22  C   UNL     1     131.523 139.953 146.414  1.00  0.00     0.001 A 
ATOM     23  C   UNL     1     132.201 141.169 146.336  1.00  0.00     0.000 A 
ENDBRANCH   7  18
BRANCH   5  24
ATOM     24  C   UNL     1     132.328 137.212 153.375  1.00  0.00     0.128 A 
ATOM     25  C   UNL     1     132.615 138.098 154.406  1.00  0.00     0.051 A 
ATOM     26  O   UNL     1     130.967 136.999 153.395  1.00  0.00    -0.457 OA
ATOM     27  C   UNL     1     131.405 138.397 155.078  1.00  0.00     0.051 A 
ATOM     28  C   UNL     1     130.413 137.699 154.425  1.00  0.00     0.134 A 
BRANCH  28  29
ATOM     29  C   UNL     1     128.967 137.568 154.593  1.00  0.00     0.018 A 
ATOM     30  C   UNL     1     128.147 138.698 154.753  1.00  0.00     0.019 A 
ATOM     31  C   UNL     1     128.362 136.300 154.599  1.00  0.00     0.019 A 
ATOM     32  C   UNL     1     126.762 138.573 154.914  1.00  0.00     0.086 A 
ATOM     33  C   UNL     1     126.978 136.160 154.760  1.00  0.00     0.086 A 
ATOM     34  C   UNL     1     126.182 137.301 154.916  1.00  0.00     0.269 A 
BRANCH  34  35
ATOM     35  N   UNL     1     124.730 137.160 155.085  1.00  0.00     0.062 N 
ATOM     36  O   UNL     1     124.115 136.486 154.246  1.00  0.00    -0.258 OA
ATOM     37  O   UNL     1     124.206 137.723 156.057  1.00  0.00    -0.258 OA
ENDBRANCH  34  35
ENDBRANCH  28  29
ENDBRANCH   5  24
TORSDOF 7
ENDMDL
