MODEL 1
REMARK VINA RESULT:    -7.172      0.000      0.000
REMARK INTER + INTRA:         -12.272
REMARK INTER:                  -9.897
REMARK INTRA:                  -2.375
REMARK UNBOUND:                -2.375
REMARK SMILES O=C(O)c1ccc(N2C(=O)/C(=C/c3ccc(-c4ccc([N+](=O)[O-])cc4)o3)C=C2c2ccccc2)cc1
REMARK SMILES IDX 8 1 9 2 10 3 11 4 12 5 27 6 28 7 7 8 4 9 5 10 36 11 6 12
REMARK SMILES IDX 35 13 2 14 1 15 3 16 29 18 30 19 34 20 31 21 33 22 32 23
REMARK SMILES IDX 13 24 14 25 26 26 15 27 16 28 17 29 18 30 25 31 19 32 24 33
REMARK SMILES IDX 20 34 21 35 22 36 23 37
REMARK H PARENT 3 17
ROOT
ATOM      1  N   UNL     1     134.229 137.142 149.003  1.00  0.00    -0.276 N 
ATOM      2  C   UNL     1     134.284 136.342 150.174  1.00  0.00     0.263 C 
ATOM      3  O   UNL     1     134.898 135.318 150.421  1.00  0.00    -0.268 OA
ATOM      4  C   UNL     1     133.402 137.061 151.153  1.00  0.00     0.046 C 
ATOM      5  C   UNL     1     133.229 136.589 152.394  1.00  0.00     0.061 C 
ATOM      6  C   UNL     1     132.895 138.227 150.483  1.00  0.00     0.041 C 
ATOM      7  C   UNL     1     133.396 138.240 149.237  1.00  0.00     0.057 C 
ENDROOT
BRANCH   1   8
ATOM      8  C   UNL     1     134.998 136.826 147.838  1.00  0.00     0.049 A 
ATOM      9  C   UNL     1     136.540 136.205 145.538  1.00  0.00     0.060 A 
ATOM     10  C   UNL     1     137.110 136.902 146.604  1.00  0.00     0.018 A 
ATOM     11  C   UNL     1     135.199 135.826 145.613  1.00  0.00     0.018 A 
ATOM     12  C   UNL     1     136.344 137.211 147.736  1.00  0.00     0.027 A 
ATOM     13  C   UNL     1     134.440 136.137 146.750  1.00  0.00     0.027 A 
BRANCH   9  14
ATOM     14  C   UNL     1     137.385 135.898 144.358  1.00  0.00     0.335 C 
ATOM     15  O   UNL     1     137.364 136.487 143.293  1.00  0.00    -0.246 OA
BRANCH  14  16
ATOM     16  O   UNL     1     138.222 134.867 144.570  1.00  0.00    -0.478 OA
ATOM     17  H   UNL     1     138.137 134.694 145.530  1.00  0.00     0.297 HD
ENDBRANCH  14  16
ENDBRANCH   9  14
ENDBRANCH   1   8
BRANCH   7  18
ATOM     18  C   UNL     1     132.965 139.237 148.256  1.00  0.00    -0.001 A 
ATOM     19  C   UNL     1     133.638 140.463 148.150  1.00  0.00     0.010 A 
ATOM     20  C   UNL     1     131.897 138.969 147.386  1.00  0.00     0.010 A 
ATOM     21  C   UNL     1     133.240 141.409 147.203  1.00  0.00     0.001 A 
ATOM     22  C   UNL     1     131.501 139.917 146.441  1.00  0.00     0.001 A 
ATOM     23  C   UNL     1     132.171 141.136 146.351  1.00  0.00     0.000 A 
ENDBRANCH   7  18
BRANCH   5  24
ATOM     24  C   UNL     1     132.408 137.183 153.390  1.00  0.00     0.128 A 
ATOM     25  C   UNL     1     132.702 138.053 154.432  1.00  0.00     0.051 A 
ATOM     26  O   UNL     1     131.046 136.979 153.407  1.00  0.00    -0.457 OA
ATOM     27  C   UNL     1     131.494 138.352 155.108  1.00  0.00     0.051 A 
ATOM     28  C   UNL     1     130.497 137.669 154.447  1.00  0.00     0.134 A 
BRANCH  28  29
ATOM     29  C   UNL     1     129.050 137.545 154.615  1.00  0.00     0.018 A 
ATOM     30  C   UNL     1     128.428 136.285 154.652  1.00  0.00     0.019 A 
ATOM     31  C   UNL     1     128.246 138.689 154.743  1.00  0.00     0.019 A 
ATOM     32  C   UNL     1     127.043 136.165 154.814  1.00  0.00     0.086 A 
ATOM     33  C   UNL     1     126.859 138.584 154.905  1.00  0.00     0.086 A 
ATOM     34  C   UNL     1     126.263 137.319 154.939  1.00  0.00     0.269 A 
BRANCH  34  35
ATOM     35  N   UNL     1     124.808 137.202 155.109  1.00  0.00     0.062 N 
ATOM     36  O   UNL     1     124.290 137.796 156.066  1.00  0.00    -0.258 OA
ATOM     37  O   UNL     1     124.185 136.519 154.283  1.00  0.00    -0.258 OA
ENDBRANCH  34  35
ENDBRANCH  28  29
ENDBRANCH   5  24
TORSDOF 7
ENDMDL
