MODEL 1
REMARK VINA RESULT:    -8.273      0.000      0.000
REMARK INTER + INTRA:          -8.273
REMARK INTER:                  -8.273
REMARK INTRA:                   0.000
REMARK UNBOUND:                 0.000
REMARK SMILES NC1=NC[C@@H]2c3ccccc3Cc3ccccc3N12
REMARK SMILES IDX 1 1 2 2 3 3 4 4 5 5 6 6 7 7 8 8 9 9 10 10 11 11 12 12 13 13
REMARK SMILES IDX 14 14 15 15 16 16 17 17 18 18 19 19
REMARK H PARENT 1 20 1 21
ROOT
ATOM      1  N   UNL     1     134.644 135.327 151.960  1.00  0.00    -0.369 N 
ATOM      2  C   UNL     1     133.369 135.271 152.403  1.00  0.00     0.196 C 
ATOM      3  N   UNL     1     132.628 134.226 152.132  1.00  0.00    -0.250 NA
ATOM      4  C   UNL     1     131.341 134.561 152.806  1.00  0.00     0.176 C 
ATOM      5  C   UNL     1     131.685 135.625 153.877  1.00  0.00     0.143 C 
ATOM      6  C   UNL     1     130.573 136.551 154.327  1.00  0.00    -0.020 A 
ATOM      7  C   UNL     1     129.256 136.471 153.848  1.00  0.00     0.006 A 
ATOM      8  C   UNL     1     128.259 137.317 154.342  1.00  0.00     0.000 A 
ATOM      9  C   UNL     1     128.557 138.251 155.328  1.00  0.00     0.000 A 
ATOM     10  C   UNL     1     129.854 138.342 155.826  1.00  0.00     0.004 A 
ATOM     11  C   UNL     1     130.860 137.494 155.338  1.00  0.00    -0.038 A 
ATOM     12  C   UNL     1     132.277 137.621 155.849  1.00  0.00     0.073 C 
ATOM     13  C   UNL     1     133.194 138.165 154.779  1.00  0.00    -0.020 A 
ATOM     14  C   UNL     1     133.814 139.409 155.032  1.00  0.00     0.006 A 
ATOM     15  C   UNL     1     134.626 140.017 154.082  1.00  0.00     0.000 A 
ATOM     16  C   UNL     1     134.814 139.399 152.858  1.00  0.00     0.002 A 
ATOM     17  C   UNL     1     134.208 138.165 152.603  1.00  0.00     0.027 A 
ATOM     18  C   UNL     1     133.408 137.491 153.554  1.00  0.00     0.048 A 
ATOM     19  N   UNL     1     132.858 136.240 153.236  1.00  0.00    -0.303 N 
ATOM     20  H   UNL     1     135.296 135.673 152.652  1.00  0.00     0.159 HD
ATOM     21  H   UNL     1     134.931 134.433 151.577  1.00  0.00     0.159 HD
ENDROOT
TORSDOF 0
ENDMDL
