MODEL 1
REMARK VINA RESULT:    -7.846      0.000      0.000
REMARK INTER + INTRA:         -11.891
REMARK INTER:                 -10.599
REMARK INTRA:                  -1.292
REMARK UNBOUND:                -1.292
REMARK SMILES Fc1ccc(-n2cc(CCCCN3CCC4(CC3)OCc3ccccc34)c3ccccc32)cc1
REMARK SMILES IDX 9 1 8 2 6 3 7 4 32 5 31 6 27 7 30 8 28 9 29 10 5 11 2 12
REMARK SMILES IDX 3 13 34 14 4 15 33 16 1 17 10 18 11 19 12 20 13 21 14 22
REMARK SMILES IDX 18 23 15 24 17 25 16 26 19 27 26 28 20 29 25 30 21 31 24 32
REMARK SMILES IDX 22 33 23 34
REMARK H PARENT
ROOT
ATOM      1  C   UNL     1     132.996 138.623 154.840  1.00  0.00     0.038 C 
ENDROOT
BRANCH   1   2
ATOM      2  C   UNL     1     131.699 137.898 154.665  1.00  0.00    -0.022 A 
ATOM      3  N   UNL     1     129.497 137.396 154.757  1.00  0.00    -0.316 N 
ATOM      4  C   UNL     1     130.476 138.278 155.176  1.00  0.00     0.096 A 
ATOM      5  C   UNL     1     130.121 136.359 154.059  1.00  0.00     0.053 A 
ATOM      6  C   UNL     1     129.635 135.136 153.549  1.00  0.00     0.027 A 
ATOM      7  C   UNL     1     131.481 136.680 153.956  1.00  0.00     0.003 A 
ATOM      8  C   UNL     1     130.512 134.285 152.869  1.00  0.00     0.002 A 
ATOM      9  C   UNL     1     132.345 135.809 153.257  1.00  0.00     0.010 A 
ATOM     10  C   UNL     1     131.849 134.622 152.711  1.00  0.00     0.001 A 
BRANCH   3  11
ATOM     11  C   UNL     1     128.101 137.574 155.009  1.00  0.00     0.046 A 
ATOM     12  C   UNL     1     125.382 137.920 155.546  1.00  0.00     0.123 A 
ATOM     13  C   UNL     1     126.073 138.899 154.843  1.00  0.00     0.041 A 
ATOM     14  C   UNL     1     126.028 136.776 155.997  1.00  0.00     0.041 A 
ATOM     15  C   UNL     1     127.434 138.731 154.577  1.00  0.00     0.029 A 
ATOM     16  C   UNL     1     127.391 136.603 155.735  1.00  0.00     0.029 A 
ATOM     17  F   UNL     1     124.077 138.085 155.800  1.00  0.00    -0.207 F 
ENDBRANCH   3  11
ENDBRANCH   1   2
BRANCH   1  18
ATOM     18  C   UNL     1     133.239 139.642 153.722  1.00  0.00     0.006 C 
BRANCH  18  19
ATOM     19  C   UNL     1     134.574 139.445 152.994  1.00  0.00     0.016 C 
BRANCH  19  20
ATOM     20  C   UNL     1     134.498 138.411 151.862  1.00  0.00     0.084 C 
BRANCH  20  21
ATOM     21  N   UNL     1     133.811 138.927 150.661  1.00  0.00    -0.303 NA
ATOM     22  C   UNL     1     133.530 137.856 149.690  1.00  0.00     0.088 C 
ATOM     23  C   UNL     1     134.644 139.967 150.026  1.00  0.00     0.088 C 
ATOM     24  C   UNL     1     132.772 138.391 148.474  1.00  0.00     0.056 C 
ATOM     25  C   UNL     1     133.931 140.599 148.833  1.00  0.00     0.056 C 
ATOM     26  C   UNL     1     133.532 139.540 147.805  1.00  0.00     0.096 C 
ATOM     27  O   UNL     1     134.749 139.013 147.197  1.00  0.00    -0.365 OA
ATOM     28  C   UNL     1     132.774 140.107 146.643  1.00  0.00    -0.011 A 
ATOM     29  C   UNL     1     134.578 138.892 145.766  1.00  0.00     0.197 C 
ATOM     30  C   UNL     1     131.621 140.880 146.624  1.00  0.00     0.007 A 
ATOM     31  C   UNL     1     133.394 139.729 145.459  1.00  0.00    -0.016 A 
ATOM     32  C   UNL     1     131.102 141.273 145.389  1.00  0.00     0.000 A 
ATOM     33  C   UNL     1     132.887 140.105 144.226  1.00  0.00     0.006 A 
ATOM     34  C   UNL     1     131.732 140.887 144.196  1.00  0.00     0.000 A 
ENDBRANCH  20  21
ENDBRANCH  19  20
ENDBRANCH  18  19
ENDBRANCH   1  18
TORSDOF 6
ENDMDL
