MODEL 1
REMARK VINA RESULT:    -6.983      0.000      0.000
REMARK INTER + INTRA:         -12.014
REMARK INTER:                  -9.636
REMARK INTRA:                  -2.378
REMARK UNBOUND:                -2.378
REMARK SMILES O=C(O)c1ccc(N2C(=O)/C(=C/c3ccc(-c4ccc([N+](=O)[O-])cc4)o3)C=C2c2ccccc2)cc1
REMARK SMILES IDX 8 1 9 2 10 3 11 4 12 5 27 6 28 7 7 8 4 9 5 10 36 11 6 12
REMARK SMILES IDX 35 13 2 14 1 15 3 16 29 18 30 19 34 20 31 21 33 22 32 23
REMARK SMILES IDX 13 24 14 25 26 26 15 27 16 28 17 29 18 30 25 31 19 32 24 33
REMARK SMILES IDX 20 34 21 35 22 36 23 37
REMARK H PARENT 3 17
ROOT
ATOM      1  N   UNL     1     134.174 137.133 148.989  1.00  0.00    -0.276 N 
ATOM      2  C   UNL     1     134.209 136.326 150.156  1.00  0.00     0.263 C 
ATOM      3  O   UNL     1     134.804 135.292 150.401  1.00  0.00    -0.268 OA
ATOM      4  C   UNL     1     133.333 137.055 151.133  1.00  0.00     0.046 C 
ATOM      5  C   UNL     1     133.146 136.579 152.371  1.00  0.00     0.061 C 
ATOM      6  C   UNL     1     132.850 138.233 150.467  1.00  0.00     0.041 C 
ATOM      7  C   UNL     1     133.358 138.244 149.224  1.00  0.00     0.057 C 
ENDROOT
BRANCH   1   8
ATOM      8  C   UNL     1     134.944 136.811 147.827  1.00  0.00     0.049 A 
ATOM      9  C   UNL     1     136.488 136.177 145.531  1.00  0.00     0.060 A 
ATOM     10  C   UNL     1     137.060 136.873 146.597  1.00  0.00     0.018 A 
ATOM     11  C   UNL     1     135.145 135.805 145.604  1.00  0.00     0.018 A 
ATOM     12  C   UNL     1     136.292 137.189 147.727  1.00  0.00     0.027 A 
ATOM     13  C   UNL     1     134.384 136.124 146.738  1.00  0.00     0.027 A 
BRANCH   9  14
ATOM     14  C   UNL     1     137.334 135.863 144.354  1.00  0.00     0.335 C 
ATOM     15  O   UNL     1     137.261 136.393 143.261  1.00  0.00    -0.246 OA
BRANCH  14  16
ATOM     16  O   UNL     1     138.239 134.899 144.604  1.00  0.00    -0.478 OA
ATOM     17  H   UNL     1     138.985 135.383 145.014  1.00  0.00     0.297 HD
ENDBRANCH  14  16
ENDBRANCH   9  14
ENDBRANCH   1   8
BRANCH   7  18
ATOM     18  C   UNL     1     132.949 139.254 148.247  1.00  0.00    -0.001 A 
ATOM     19  C   UNL     1     133.637 140.472 148.157  1.00  0.00     0.010 A 
ATOM     20  C   UNL     1     131.888 139.004 147.363  1.00  0.00     0.010 A 
ATOM     21  C   UNL     1     133.260 141.430 147.213  1.00  0.00     0.001 A 
ATOM     22  C   UNL     1     131.513 139.964 146.421  1.00  0.00     0.001 A 
ATOM     23  C   UNL     1     132.198 141.176 146.347  1.00  0.00     0.000 A 
ENDBRANCH   7  18
BRANCH   5  24
ATOM     24  C   UNL     1     132.329 137.182 153.365  1.00  0.00     0.128 A 
ATOM     25  C   UNL     1     132.630 138.050 154.407  1.00  0.00     0.051 A 
ATOM     26  O   UNL     1     130.965 136.990 153.382  1.00  0.00    -0.457 OA
ATOM     27  C   UNL     1     131.424 138.360 155.082  1.00  0.00     0.051 A 
ATOM     28  C   UNL     1     130.422 137.686 154.420  1.00  0.00     0.134 A 
BRANCH  28  29
ATOM     29  C   UNL     1     128.974 137.576 154.587  1.00  0.00     0.018 A 
ATOM     30  C   UNL     1     128.171 138.718 154.745  1.00  0.00     0.019 A 
ATOM     31  C   UNL     1     128.351 136.317 154.592  1.00  0.00     0.019 A 
ATOM     32  C   UNL     1     126.784 138.613 154.904  1.00  0.00     0.086 A 
ATOM     33  C   UNL     1     126.964 136.197 154.751  1.00  0.00     0.086 A 
ATOM     34  C   UNL     1     126.185 137.349 154.906  1.00  0.00     0.269 A 
BRANCH  34  35
ATOM     35  N   UNL     1     124.731 137.230 155.073  1.00  0.00     0.062 N 
ATOM     36  O   UNL     1     124.203 137.855 156.003  1.00  0.00    -0.258 OA
ATOM     37  O   UNL     1     124.117 136.511 154.270  1.00  0.00    -0.258 OA
ENDBRANCH  34  35
ENDBRANCH  28  29
ENDBRANCH   5  24
TORSDOF 7
ENDMDL
