MODEL 1
REMARK VINA RESULT:    -6.995      0.000      0.000
REMARK INTER + INTRA:         -12.029
REMARK INTER:                  -9.653
REMARK INTRA:                  -2.376
REMARK UNBOUND:                -2.376
REMARK SMILES O=C(O)c1ccc(N2C(=O)/C(=C/c3ccc(-c4ccc([N+](=O)[O-])cc4)o3)C=C2c2ccccc2)cc1
REMARK SMILES IDX 8 1 9 2 10 3 11 4 12 5 27 6 28 7 7 8 4 9 5 10 36 11 6 12
REMARK SMILES IDX 35 13 2 14 1 15 3 16 29 18 30 19 34 20 31 21 33 22 32 23
REMARK SMILES IDX 13 24 14 25 26 26 15 27 16 28 17 29 18 30 25 31 19 32 24 33
REMARK SMILES IDX 20 34 21 35 22 36 23 37
REMARK H PARENT 3 17
ROOT
ATOM      1  N   UNL     1     134.172 137.134 148.986  1.00  0.00    -0.276 N 
ATOM      2  C   UNL     1     134.205 136.327 150.154  1.00  0.00     0.263 C 
ATOM      3  O   UNL     1     134.800 135.293 150.400  1.00  0.00    -0.268 OA
ATOM      4  C   UNL     1     133.327 137.057 151.129  1.00  0.00     0.046 C 
ATOM      5  C   UNL     1     133.137 136.581 152.366  1.00  0.00     0.061 C 
ATOM      6  C   UNL     1     132.845 138.234 150.461  1.00  0.00     0.041 C 
ATOM      7  C   UNL     1     133.355 138.245 149.219  1.00  0.00     0.057 C 
ENDROOT
BRANCH   1   8
ATOM      8  C   UNL     1     134.944 136.812 147.826  1.00  0.00     0.049 A 
ATOM      9  C   UNL     1     136.493 136.177 145.533  1.00  0.00     0.060 A 
ATOM     10  C   UNL     1     137.061 136.878 146.598  1.00  0.00     0.018 A 
ATOM     11  C   UNL     1     135.151 135.801 145.605  1.00  0.00     0.018 A 
ATOM     12  C   UNL     1     136.291 137.193 147.727  1.00  0.00     0.027 A 
ATOM     13  C   UNL     1     134.388 136.120 146.738  1.00  0.00     0.027 A 
BRANCH   9  14
ATOM     14  C   UNL     1     137.342 135.863 144.358  1.00  0.00     0.335 C 
ATOM     15  O   UNL     1     137.279 136.402 143.269  1.00  0.00    -0.246 OA
BRANCH  14  16
ATOM     16  O   UNL     1     138.235 134.888 144.604  1.00  0.00    -0.478 OA
ATOM     17  H   UNL     1     139.010 135.142 144.061  1.00  0.00     0.297 HD
ENDBRANCH  14  16
ENDBRANCH   9  14
ENDBRANCH   1   8
BRANCH   7  18
ATOM     18  C   UNL     1     132.949 139.254 148.241  1.00  0.00    -0.001 A 
ATOM     19  C   UNL     1     133.641 140.470 148.147  1.00  0.00     0.010 A 
ATOM     20  C   UNL     1     131.884 139.007 147.360  1.00  0.00     0.010 A 
ATOM     21  C   UNL     1     133.266 141.427 147.202  1.00  0.00     0.001 A 
ATOM     22  C   UNL     1     131.510 139.966 146.417  1.00  0.00     0.001 A 
ATOM     23  C   UNL     1     132.201 141.175 146.340  1.00  0.00     0.000 A 
ENDBRANCH   7  18
BRANCH   5  24
ATOM     24  C   UNL     1     132.319 137.183 153.359  1.00  0.00     0.128 A 
ATOM     25  C   UNL     1     132.612 138.074 154.383  1.00  0.00     0.051 A 
ATOM     26  O   UNL     1     130.959 136.965 153.392  1.00  0.00    -0.457 OA
ATOM     27  C   UNL     1     131.407 138.372 155.065  1.00  0.00     0.051 A 
ATOM     28  C   UNL     1     130.412 137.668 154.425  1.00  0.00     0.134 A 
BRANCH  28  29
ATOM     29  C   UNL     1     128.968 137.531 154.608  1.00  0.00     0.018 A 
ATOM     30  C   UNL     1     128.143 138.660 154.747  1.00  0.00     0.019 A 
ATOM     31  C   UNL     1     128.371 136.260 154.647  1.00  0.00     0.019 A 
ATOM     32  C   UNL     1     126.760 138.531 154.922  1.00  0.00     0.086 A 
ATOM     33  C   UNL     1     126.989 136.116 154.822  1.00  0.00     0.086 A 
ATOM     34  C   UNL     1     126.188 137.255 154.958  1.00  0.00     0.269 A 
BRANCH  34  35
ATOM     35  N   UNL     1     124.738 137.110 155.141  1.00  0.00     0.062 N 
ATOM     36  O   UNL     1     124.234 137.598 156.163  1.00  0.00    -0.258 OA
ATOM     37  O   UNL     1     124.104 136.509 154.261  1.00  0.00    -0.258 OA
ENDBRANCH  34  35
ENDBRANCH  28  29
ENDBRANCH   5  24
TORSDOF 7
ENDMDL
