MODEL 1
REMARK VINA RESULT:    -6.627      0.000      0.000
REMARK INTER + INTRA:         -14.063
REMARK INTER:                 -11.276
REMARK INTRA:                  -2.787
REMARK UNBOUND:                -2.787
REMARK SMILES C=C1/C(=C\C=C2/CCC[C@]3(C)[C@@H]([C@H](C)CCCC(C)(C)O)CC[C@@H]23)C[C@@H](O)[C@@H](OCCCO)[C@@H]1O
REMARK SMILES IDX 5 1 6 2 7 3 8 4 9 5 10 6 11 7 12 8 22 9 23 10 24 11 4 12
REMARK SMILES IDX 1 13 2 14 3 15 34 16 25 17 28 18 26 19 35 20 29 22 30 23
REMARK SMILES IDX 31 24 32 25 33 26 27 28 13 30 14 31 15 32 16 33 17 34 18 35
REMARK SMILES IDX 19 36 20 37 21 38
REMARK H PARENT 35 21 33 27 27 29 21 39
ROOT
ATOM      1  C   UNL     1     135.183 136.836 149.756  1.00  0.00    -0.000 C 
ATOM      2  C   UNL     1     135.218 137.604 150.863  1.00  0.00    -0.067 C 
ATOM      3  C   UNL     1     135.957 138.923 151.005  1.00  0.00     0.031 C 
ATOM      4  C   UNL     1     135.061 140.040 151.555  1.00  0.00     0.005 C 
ATOM      5  C   UNL     1     134.274 139.629 152.809  1.00  0.00     0.008 C 
ATOM      6  C   UNL     1     133.486 138.315 152.603  1.00  0.00    -0.023 C 
ATOM      7  C   UNL     1     132.351 138.526 151.572  1.00  0.00     0.012 C 
ATOM      8  C   UNL     1     132.949 137.651 153.912  1.00  0.00    -0.002 C 
ATOM      9  C   UNL     1     132.872 136.141 153.539  1.00  0.00     0.005 C 
ATOM     10  C   UNL     1     133.732 135.930 152.290  1.00  0.00     0.009 C 
ATOM     11  C   UNL     1     134.512 137.234 152.152  1.00  0.00     0.021 C 
ENDROOT
BRANCH   1  12
ATOM     12  C   UNL     1     135.855 137.089 148.497  1.00  0.00     0.004 C 
ATOM     13  C   UNL     1     133.313 138.873 147.976  1.00  0.00     0.015 C 
ATOM     14  C   UNL     1     133.908 137.976 147.171  1.00  0.00    -0.021 C 
ATOM     15  C   UNL     1     135.300 137.556 147.359  1.00  0.00    -0.040 C 
ATOM     16  C   UNL     1     133.286 137.390 145.915  1.00  0.00     0.175 C 
ATOM     17  C   UNL     1     136.143 137.637 146.097  1.00  0.00     0.070 C 
ATOM     18  C   UNL     1     134.062 137.791 144.630  1.00  0.00     0.180 C 
ATOM     19  C   UNL     1     135.445 138.398 144.960  1.00  0.00     0.150 C 
BRANCH  16  20
ATOM     20  O   UNL     1     131.916 137.782 145.778  1.00  0.00    -0.386 OA
ATOM     21  H   UNL     1     131.622 137.419 144.923  1.00  0.00     0.211 HD
ENDBRANCH  16  20
BRANCH  18  22
ATOM     22  O   UNL     1     134.315 136.625 143.799  1.00  0.00    -0.372 OA
BRANCH  22  23
ATOM     23  C   UNL     1     133.109 135.960 143.412  1.00  0.00     0.163 C 
BRANCH  23  24
ATOM     24  C   UNL     1     133.400 134.473 143.248  1.00  0.00     0.057 C 
BRANCH  24  25
ATOM     25  C   UNL     1     133.699 133.797 144.581  1.00  0.00     0.158 C 
BRANCH  25  26
ATOM     26  O   UNL     1     134.900 134.311 145.143  1.00  0.00    -0.396 OA
ATOM     27  H   UNL     1     134.657 134.819 145.936  1.00  0.00     0.210 HD
ENDBRANCH  25  26
ENDBRANCH  24  25
ENDBRANCH  23  24
ENDBRANCH  22  23
ENDBRANCH  18  22
BRANCH  19  28
ATOM     28  O   UNL     1     136.276 138.382 143.792  1.00  0.00    -0.390 OA
ATOM     29  H   UNL     1     135.709 138.737 143.077  1.00  0.00     0.211 HD
ENDBRANCH  19  28
ENDBRANCH   1  12
BRANCH   8  30
ATOM     30  C   UNL     1     131.620 138.160 154.549  1.00  0.00    -0.011 C 
ATOM     31  C   UNL     1     131.796 138.563 156.016  1.00  0.00     0.008 C 
BRANCH  30  32
ATOM     32  C   UNL     1     130.515 137.074 154.422  1.00  0.00     0.004 C 
BRANCH  32  33
ATOM     33  C   UNL     1     129.083 137.622 154.508  1.00  0.00     0.003 C 
BRANCH  33  34
ATOM     34  C   UNL     1     128.057 136.522 154.212  1.00  0.00     0.034 C 
BRANCH  34  35
ATOM     35  C   UNL     1     127.240 136.034 155.427  1.00  0.00     0.059 C 
ATOM     36  C   UNL     1     125.829 135.594 155.036  1.00  0.00     0.042 C 
ATOM     37  C   UNL     1     127.181 137.072 156.550  1.00  0.00     0.042 C 
BRANCH  35  38
ATOM     38  O   UNL     1     127.902 134.872 155.946  1.00  0.00    -0.390 OA
ATOM     39  H   UNL     1     127.228 134.191 156.110  1.00  0.00     0.211 HD
ENDBRANCH  35  38
ENDBRANCH  34  35
ENDBRANCH  33  34
ENDBRANCH  32  33
ENDBRANCH  30  32
ENDBRANCH   8  30
TORSDOF 14
ENDMDL
