MODEL 1
REMARK VINA RESULT:    -8.147      0.000      0.000
REMARK INTER + INTRA:         -12.545
REMARK INTER:                 -11.005
REMARK INTRA:                  -1.540
REMARK UNBOUND:                -1.540
REMARK SMILES Fc1ccc(-n2cc(CCCCN3CCC4(CC3)OCc3ccccc34)c3ccccc32)cc1
REMARK SMILES IDX 9 1 8 2 6 3 7 4 32 5 31 6 27 7 30 8 28 9 29 10 5 11 2 12
REMARK SMILES IDX 3 13 34 14 4 15 33 16 1 17 10 18 11 19 12 20 13 21 14 22
REMARK SMILES IDX 18 23 15 24 17 25 16 26 19 27 26 28 20 29 25 30 21 31 24 32
REMARK SMILES IDX 22 33 23 34
REMARK H PARENT
ROOT
ATOM      1  C   UNL     1     133.375 138.320 155.817  1.00  0.00     0.038 C 
ENDROOT
BRANCH   1   2
ATOM      2  C   UNL     1     132.069 137.751 155.358  1.00  0.00    -0.022 A 
ATOM      3  N   UNL     1     129.848 137.424 155.106  1.00  0.00    -0.316 N 
ATOM      4  C   UNL     1     130.817 138.124 155.799  1.00  0.00     0.096 A 
ATOM      5  C   UNL     1     130.491 136.493 154.285  1.00  0.00     0.053 A 
ATOM      6  C   UNL     1     130.000 135.437 153.488  1.00  0.00     0.027 A 
ATOM      7  C   UNL     1     131.870 136.716 154.398  1.00  0.00     0.003 A 
ATOM      8  C   UNL     1     130.904 134.665 152.750  1.00  0.00     0.002 A 
ATOM      9  C   UNL     1     132.760 135.929 153.636  1.00  0.00     0.010 A 
ATOM     10  C   UNL     1     132.267 134.916 152.811  1.00  0.00     0.001 A 
BRANCH   3  11
ATOM     11  C   UNL     1     128.444 137.663 155.235  1.00  0.00     0.046 A 
ATOM     12  C   UNL     1     125.697 138.125 155.441  1.00  0.00     0.123 A 
ATOM     13  C   UNL     1     126.260 137.032 156.088  1.00  0.00     0.041 A 
ATOM     14  C   UNL     1     126.480 138.985 154.681  1.00  0.00     0.041 A 
ATOM     15  C   UNL     1     127.633 136.796 155.983  1.00  0.00     0.029 A 
ATOM     16  C   UNL     1     127.855 138.752 154.570  1.00  0.00     0.029 A 
ATOM     17  F   UNL     1     124.380 138.348 155.543  1.00  0.00    -0.207 F 
ENDBRANCH   3  11
ENDBRANCH   1   2
BRANCH   1  18
ATOM     18  C   UNL     1     133.725 139.618 155.084  1.00  0.00     0.006 C 
BRANCH  18  19
ATOM     19  C   UNL     1     134.527 139.398 153.796  1.00  0.00     0.016 C 
BRANCH  19  20
ATOM     20  C   UNL     1     133.757 139.798 152.529  1.00  0.00     0.084 C 
BRANCH  20  21
ATOM     21  N   UNL     1     134.396 139.306 151.293  1.00  0.00    -0.303 NA
ATOM     22  C   UNL     1     133.550 139.540 150.110  1.00  0.00     0.088 C 
ATOM     23  C   UNL     1     134.677 137.863 151.424  1.00  0.00     0.088 C 
ATOM     24  C   UNL     1     134.243 139.075 148.828  1.00  0.00     0.056 C 
ATOM     25  C   UNL     1     135.426 137.329 150.205  1.00  0.00     0.056 C 
ATOM     26  C   UNL     1     134.649 137.602 148.918  1.00  0.00     0.096 C 
ATOM     27  O   UNL     1     133.444 136.778 148.928  1.00  0.00    -0.365 OA
ATOM     28  C   UNL     1     135.375 137.148 147.687  1.00  0.00    -0.011 A 
ATOM     29  C   UNL     1     133.242 136.176 147.629  1.00  0.00     0.197 C 
ATOM     30  C   UNL     1     136.654 137.456 147.244  1.00  0.00     0.007 A 
ATOM     31  C   UNL     1     134.549 136.313 146.946  1.00  0.00    -0.016 A 
ATOM     32  C   UNL     1     137.093 136.905 146.039  1.00  0.00     0.000 A 
ATOM     33  C   UNL     1     134.968 135.764 145.745  1.00  0.00     0.006 A 
ATOM     34  C   UNL     1     136.254 136.063 145.293  1.00  0.00     0.000 A 
ENDBRANCH  20  21
ENDBRANCH  19  20
ENDBRANCH  18  19
ENDBRANCH   1  18
TORSDOF 6
ENDMDL
