MODEL 1
REMARK VINA RESULT:    -7.712      0.000      0.000
REMARK INTER + INTRA:         -10.387
REMARK INTER:                  -9.515
REMARK INTRA:                  -0.872
REMARK UNBOUND:                -0.872
REMARK SMILES C[C@@H](C(=O)Nc1ccc(Cl)cc1)[C@H]1CC[C@@H](c2ccnc3ccc(F)cc32)CC1
REMARK SMILES IDX 1 1 2 2 3 3 4 4 5 5 6 7 7 8 12 9 8 10 11 11 9 12 10 13 13 14
REMARK SMILES IDX 29 15 14 16 28 17 15 18 16 19 17 20 18 21 27 22 19 23 26 24
REMARK SMILES IDX 21 25 20 26 24 27 22 28 23 29 25 30
REMARK H PARENT 5 6
ROOT
ATOM      1  C   UNL     1     132.925 137.021 155.628  1.00  0.00     0.018 C 
ATOM      2  C   UNL     1     132.471 137.382 154.209  1.00  0.00     0.079 C 
ENDROOT
BRANCH   2   3
ATOM      3  C   UNL     1     131.023 136.914 154.002  1.00  0.00     0.227 C 
ATOM      4  O   UNL     1     130.774 136.069 153.148  1.00  0.00    -0.274 OA
ATOM      5  N   UNL     1     130.107 137.534 154.831  1.00  0.00    -0.326 N 
ATOM      6  H   UNL     1     130.470 138.209 155.490  1.00  0.00     0.169 HD
BRANCH   5   7
ATOM      7  C   UNL     1     128.711 137.336 154.871  1.00  0.00     0.041 A 
ATOM      8  C   UNL     1     127.902 138.479 154.802  1.00  0.00     0.027 A 
ATOM      9  C   UNL     1     128.100 136.083 154.971  1.00  0.00     0.027 A 
ATOM     10  C   UNL     1     126.508 138.371 154.835  1.00  0.00     0.022 A 
ATOM     11  C   UNL     1     126.704 135.973 155.003  1.00  0.00     0.022 A 
ATOM     12  C   UNL     1     125.915 137.116 154.935  1.00  0.00     0.041 A 
ATOM     13  Cl  UNL     1     124.201 136.981 154.974  1.00  0.00    -0.084 Cl
ENDBRANCH   5   7
ENDBRANCH   2   3
BRANCH   2  14
ATOM     14  C   UNL     1     132.651 138.892 153.873  1.00  0.00     0.001 C 
ATOM     15  C   UNL     1     134.129 139.310 153.753  1.00  0.00     0.005 C 
ATOM     16  C   UNL     1     131.918 139.304 152.578  1.00  0.00     0.005 C 
ATOM     17  C   UNL     1     134.814 138.742 152.508  1.00  0.00     0.009 C 
ATOM     18  C   UNL     1     132.569 138.723 151.321  1.00  0.00     0.009 C 
ATOM     19  C   UNL     1     134.057 139.120 151.223  1.00  0.00     0.020 C 
BRANCH  19  20
ATOM     20  C   UNL     1     134.787 138.578 149.995  1.00  0.00    -0.034 A 
ATOM     21  C   UNL     1     135.872 137.708 150.156  1.00  0.00     0.025 A 
ATOM     22  C   UNL     1     134.427 138.964 148.668  1.00  0.00     0.007 A 
ATOM     23  C   UNL     1     136.524 137.227 149.036  1.00  0.00     0.112 A 
ATOM     24  C   UNL     1     133.389 139.873 148.347  1.00  0.00     0.049 A 
ATOM     25  C   UNL     1     135.169 138.402 147.595  1.00  0.00     0.071 A 
ATOM     26  N   UNL     1     136.188 137.552 147.774  1.00  0.00    -0.256 NA
ATOM     27  C   UNL     1     133.097 140.191 147.026  1.00  0.00     0.123 A 
ATOM     28  C   UNL     1     134.848 138.743 146.287  1.00  0.00     0.032 A 
ATOM     29  C   UNL     1     133.816 139.632 145.988  1.00  0.00     0.041 A 
ATOM     30  F   UNL     1     132.109 141.054 146.759  1.00  0.00    -0.207 F 
ENDBRANCH  19  20
ENDBRANCH   2  14
TORSDOF 4
ENDMDL
