MODEL 1
REMARK VINA RESULT:    -8.043      0.000      0.000
REMARK INTER + INTRA:          -8.043
REMARK INTER:                  -8.043
REMARK INTRA:                   0.000
REMARK UNBOUND:                 0.000
REMARK SMILES NC1=NC[C@@H]2c3ccccc3Cc3ccccc3N12
REMARK SMILES IDX 1 1 2 2 3 3 4 4 5 5 6 6 7 7 8 8 9 9 10 10 11 11 12 12 13 13
REMARK SMILES IDX 14 14 15 15 16 16 17 17 18 18 19 19
REMARK H PARENT 1 20 1 21
ROOT
ATOM      1  N   UNL     1     134.510 135.014 151.605  1.00  0.00    -0.369 N 
ATOM      2  C   UNL     1     133.288 135.010 152.182  1.00  0.00     0.196 C 
ATOM      3  N   UNL     1     132.548 133.930 152.138  1.00  0.00    -0.250 NA
ATOM      4  C   UNL     1     131.329 134.345 152.889  1.00  0.00     0.176 C 
ATOM      5  C   UNL     1     131.755 135.552 153.759  1.00  0.00     0.143 C 
ATOM      6  C   UNL     1     130.673 136.521 154.189  1.00  0.00    -0.020 A 
ATOM      7  C   UNL     1     129.316 136.362 153.866  1.00  0.00     0.006 A 
ATOM      8  C   UNL     1     128.355 137.260 154.339  1.00  0.00     0.000 A 
ATOM      9  C   UNL     1     128.729 138.326 155.149  1.00  0.00     0.000 A 
ATOM     10  C   UNL     1     130.067 138.499 155.491  1.00  0.00     0.004 A 
ATOM     11  C   UNL     1     131.039 137.600 155.024  1.00  0.00    -0.038 A 
ATOM     12  C   UNL     1     132.496 137.811 155.362  1.00  0.00     0.073 C 
ATOM     13  C   UNL     1     133.286 138.207 154.137  1.00  0.00    -0.020 A 
ATOM     14  C   UNL     1     133.899 139.481 154.148  1.00  0.00     0.006 A 
ATOM     15  C   UNL     1     134.595 139.957 153.043  1.00  0.00     0.000 A 
ATOM     16  C   UNL     1     134.672 139.173 151.905  1.00  0.00     0.002 A 
ATOM     17  C   UNL     1     134.073 137.910 151.889  1.00  0.00     0.027 A 
ATOM     18  C   UNL     1     133.390 137.370 153.002  1.00  0.00     0.048 A 
ATOM     19  N   UNL     1     132.842 136.081 152.921  1.00  0.00    -0.303 N 
ATOM     20  H   UNL     1     135.220 135.461 152.170  1.00  0.00     0.159 HD
ATOM     21  H   UNL     1     134.778 134.078 151.322  1.00  0.00     0.159 HD
ENDROOT
TORSDOF 0
ENDMDL
