MODEL 1
REMARK VINA RESULT:    -8.149      0.000      0.000
REMARK INTER + INTRA:         -12.574
REMARK INTER:                 -11.007
REMARK INTRA:                  -1.567
REMARK UNBOUND:                -1.567
REMARK SMILES Fc1ccc(-n2cc(CCCCN3CCC4(CC3)OCc3ccccc34)c3ccccc32)cc1
REMARK SMILES IDX 9 1 8 2 6 3 7 4 32 5 31 6 27 7 30 8 28 9 29 10 5 11 2 12
REMARK SMILES IDX 3 13 34 14 4 15 33 16 1 17 10 18 11 19 12 20 13 21 14 22
REMARK SMILES IDX 18 23 15 24 17 25 16 26 19 27 26 28 20 29 25 30 21 31 24 32
REMARK SMILES IDX 22 33 23 34
REMARK H PARENT
ROOT
ATOM      1  C   UNL     1     133.319 138.314 155.886  1.00  0.00     0.038 C 
ENDROOT
BRANCH   1   2
ATOM      2  C   UNL     1     132.023 137.742 155.406  1.00  0.00    -0.022 A 
ATOM      3  N   UNL     1     129.807 137.400 155.126  1.00  0.00    -0.316 N 
ATOM      4  C   UNL     1     130.763 138.098 155.839  1.00  0.00     0.096 A 
ATOM      5  C   UNL     1     130.466 136.489 154.297  1.00  0.00     0.053 A 
ATOM      6  C   UNL     1     129.993 135.441 153.478  1.00  0.00     0.027 A 
ATOM      7  C   UNL     1     131.842 136.721 154.427  1.00  0.00     0.003 A 
ATOM      8  C   UNL     1     130.910 134.689 152.737  1.00  0.00     0.002 A 
ATOM      9  C   UNL     1     132.746 135.954 153.662  1.00  0.00     0.010 A 
ATOM     10  C   UNL     1     132.270 134.950 152.815  1.00  0.00     0.001 A 
BRANCH   3  11
ATOM     11  C   UNL     1     128.400 137.625 155.244  1.00  0.00     0.046 A 
ATOM     12  C   UNL     1     125.647 138.060 155.430  1.00  0.00     0.123 A 
ATOM     13  C   UNL     1     126.214 136.965 156.070  1.00  0.00     0.041 A 
ATOM     14  C   UNL     1     126.429 138.936 154.688  1.00  0.00     0.041 A 
ATOM     15  C   UNL     1     127.590 136.743 155.975  1.00  0.00     0.029 A 
ATOM     16  C   UNL     1     127.807 138.717 154.587  1.00  0.00     0.029 A 
ATOM     17  F   UNL     1     124.327 138.270 155.523  1.00  0.00    -0.207 F 
ENDBRANCH   3  11
ENDBRANCH   1   2
BRANCH   1  18
ATOM     18  C   UNL     1     133.690 139.600 155.141  1.00  0.00     0.006 C 
BRANCH  18  19
ATOM     19  C   UNL     1     134.510 139.356 153.869  1.00  0.00     0.016 C 
BRANCH  19  20
ATOM     20  C   UNL     1     133.864 139.953 152.610  1.00  0.00     0.084 C 
BRANCH  20  21
ATOM     21  N   UNL     1     134.448 139.422 151.363  1.00  0.00    -0.303 NA
ATOM     22  C   UNL     1     133.562 139.647 150.207  1.00  0.00     0.088 C 
ATOM     23  C   UNL     1     134.707 137.978 151.515  1.00  0.00     0.088 C 
ATOM     24  C   UNL     1     134.199 139.142 148.911  1.00  0.00     0.056 C 
ATOM     25  C   UNL     1     135.400 137.403 150.281  1.00  0.00     0.056 C 
ATOM     26  C   UNL     1     134.581 137.663 149.018  1.00  0.00     0.096 C 
ATOM     27  O   UNL     1     133.363 136.862 149.091  1.00  0.00    -0.365 OA
ATOM     28  C   UNL     1     135.252 137.169 147.772  1.00  0.00    -0.011 A 
ATOM     29  C   UNL     1     133.101 136.237 147.814  1.00  0.00     0.197 C 
ATOM     30  C   UNL     1     136.519 137.444 147.275  1.00  0.00     0.007 A 
ATOM     31  C   UNL     1     134.384 136.335 147.080  1.00  0.00    -0.016 A 
ATOM     32  C   UNL     1     136.903 136.859 146.067  1.00  0.00     0.000 A 
ATOM     33  C   UNL     1     134.748 135.753 145.876  1.00  0.00     0.006 A 
ATOM     34  C   UNL     1     136.022 136.018 145.371  1.00  0.00     0.000 A 
ENDBRANCH  20  21
ENDBRANCH  19  20
ENDBRANCH  18  19
ENDBRANCH   1  18
TORSDOF 6
ENDMDL
