REMARK SMILES CC(C)NC[C@@H](O)COc1cccc2[nH]ccc12
REMARK SMILES IDX 6 1 5 2 4 3 2 5 1 6 3 7 7 8 8 10 9 11 10 12 11 13 18 14
REMARK SMILES IDX 12 15 17 16 14 17 13 18 16 19 15 20
REMARK H PARENT 4 4 7 9 15 21
ROOT
ATOM      1  C   UNL     1       0.912  -0.365  -0.965  1.00  0.00     0.165 C 
ENDROOT
BRANCH   1   2
ATOM      2  C   UNL     1       2.091   0.285  -0.217  1.00  0.00     0.116 C 
BRANCH   2   3
ATOM      3  N   UNL     1       3.262   0.352  -1.102  1.00  0.00    -0.312 NA
ATOM      4  H   UNL     1       3.357  -0.566  -1.547  1.00  0.00     0.123 HD
BRANCH   3   5
ATOM      5  C   UNL     1       4.527   0.717  -0.453  1.00  0.00     0.047 C 
ATOM      6  C   UNL     1       4.456   2.047   0.298  1.00  0.00     0.024 C 
ATOM      7  C   UNL     1       5.070  -0.396   0.446  1.00  0.00     0.024 C 
ENDBRANCH   3   5
ENDBRANCH   2   3
ENDBRANCH   1   2
BRANCH   1   8
ATOM      8  O   UNL     1       1.275  -1.708  -1.336  1.00  0.00    -0.388 OA
ATOM      9  H   UNL     1       0.468  -2.093  -1.728  1.00  0.00     0.211 HD
ENDBRANCH   1   8
BRANCH   1  10
ATOM     10  C   UNL     1      -0.341  -0.409  -0.084  1.00  0.00     0.262 C 
BRANCH  10  11
ATOM     11  O   UNL     1      -1.401  -0.987  -0.868  1.00  0.00    -0.490 OA
BRANCH  11  12
ATOM     12  C   UNL     1      -2.559  -1.022  -0.121  1.00  0.00     0.128 A 
ATOM     13  C   UNL     1      -2.891  -2.216   0.528  1.00  0.00     0.047 A 
ATOM     14  C   UNL     1      -3.436   0.081  -0.060  1.00  0.00     0.041 A 
ATOM     15  C   UNL     1      -4.065  -2.307   1.273  1.00  0.00     0.006 A 
ATOM     16  C   UNL     1      -3.439   1.391  -0.618  1.00  0.00     0.032 A 
ATOM     17  C   UNL     1      -4.604  -0.043   0.696  1.00  0.00     0.049 A 
ATOM     18  C   UNL     1      -4.941  -1.220   1.377  1.00  0.00     0.027 A 
ATOM     19  C   UNL     1      -4.579   2.030  -0.189  1.00  0.00     0.083 A 
ATOM     20  N   UNL     1      -5.275   1.156   0.605  1.00  0.00    -0.361 N 
ATOM     21  H   UNL     1      -6.159   1.353   1.052  1.00  0.00     0.166 HD
ENDBRANCH  11  12
ENDBRANCH  10  11
ENDBRANCH   1  10
TORSDOF 7
