REMARK SMILES COP(=S)(OC)Oc1ccc(Sc2ccc(OP(=S)(OC)OC)cc2)cc1
REMARK SMILES IDX 12 1 11 2 8 3 9 4 27 5 10 6 26 7 7 8 3 9 4 10 2 11 1 12 5 13
REMARK SMILES IDX 6 14 13 15 14 16 25 17 15 18 24 19 16 20 17 21 18 22 19 23
REMARK SMILES IDX 20 24 21 25 22 26 23 27
REMARK H PARENT
ROOT
ATOM      1  S   UNL     1      -0.213  -3.154   1.735  1.00  0.00    -0.090 SA
ENDROOT
BRANCH   1   2
ATOM      2  C   UNL     1       1.238  -2.147   1.488  1.00  0.00     0.012 A 
ATOM      3  C   UNL     1       3.540  -0.598   1.069  1.00  0.00     0.129 A 
ATOM      4  C   UNL     1       3.339  -1.759   0.328  1.00  0.00     0.048 A 
ATOM      5  C   UNL     1       2.595  -0.212   2.020  1.00  0.00     0.048 A 
ATOM      6  C   UNL     1       2.193  -2.533   0.542  1.00  0.00     0.019 A 
ATOM      7  C   UNL     1       1.450  -0.984   2.233  1.00  0.00     0.019 A 
BRANCH   3   8
ATOM      8  O   UNL     1       4.611   0.239   0.930  1.00  0.00    -0.424 OA
BRANCH   8   9
ATOM      9  P   UNL     1       5.921  -0.018   0.020  1.00  0.00     0.380 P 
ATOM     10  S   UNL     1       7.042  -1.533   0.484  1.00  0.00     0.006 S 
BRANCH   9  11
ATOM     11  O   UNL     1       6.642   1.432   0.109  1.00  0.00    -0.303 OA
ATOM     12  C   UNL     1       7.840   1.636  -0.616  1.00  0.00     0.207 C 
ENDBRANCH   9  11
BRANCH   9  13
ATOM     13  O   UNL     1       5.343  -0.009  -1.495  1.00  0.00    -0.303 OA
ATOM     14  C   UNL     1       4.548   1.078  -1.928  1.00  0.00     0.207 C 
ENDBRANCH   9  13
ENDBRANCH   8   9
ENDBRANCH   3   8
ENDBRANCH   1   2
BRANCH   1  15
ATOM     15  C   UNL     1      -1.516  -1.991   1.379  1.00  0.00     0.012 A 
ATOM     16  C   UNL     1      -1.609  -1.365   0.131  1.00  0.00     0.019 A 
ATOM     17  C   UNL     1      -2.477  -1.712   2.354  1.00  0.00     0.019 A 
ATOM     18  C   UNL     1      -2.637  -0.454  -0.134  1.00  0.00     0.048 A 
ATOM     19  C   UNL     1      -3.503  -0.802   2.089  1.00  0.00     0.048 A 
ATOM     20  C   UNL     1      -3.579  -0.165   0.850  1.00  0.00     0.129 A 
BRANCH  20  21
ATOM     21  O   UNL     1      -4.623   0.701   0.693  1.00  0.00    -0.424 OA
BRANCH  21  22
ATOM     22  P   UNL     1      -4.829   1.741  -0.527  1.00  0.00     0.380 P 
ATOM     23  S   UNL     1      -3.468   3.103  -0.772  1.00  0.00     0.006 S 
BRANCH  22  24
ATOM     24  O   UNL     1      -5.103   0.782  -1.806  1.00  0.00    -0.303 OA
ATOM     25  C   UNL     1      -6.094  -0.223  -1.719  1.00  0.00     0.207 C 
ENDBRANCH  22  24
BRANCH  22  26
ATOM     26  O   UNL     1      -6.319   2.297  -0.204  1.00  0.00    -0.303 OA
ATOM     27  C   UNL     1      -6.901   3.225  -1.100  1.00  0.00     0.207 C 
ENDBRANCH  22  26
ENDBRANCH  21  22
ENDBRANCH  20  21
ENDBRANCH   1  15
TORSDOF 10
