REMARK SMILES O=C1N=C(NCc2cccs2)S/C1=C\c1ccc2ncccc2c1
REMARK SMILES IDX 1 1 2 2 3 3 4 4 5 5 12 6 13 7 14 8 15 10 16 11 24 12 17 13
REMARK SMILES IDX 23 14 18 15 22 16 19 17 21 18 20 19 6 20 7 21 8 22 11 23
REMARK SMILES IDX 9 24 10 25
REMARK H PARENT 5 9
ROOT
ATOM      1  O   UNL     1       1.518  -3.103  -1.242  1.00  0.00    -0.266 OA
ATOM      2  C   UNL     1       1.444  -2.200  -0.421  1.00  0.00     0.286 C 
ATOM      3  N   UNL     1       2.424  -1.881   0.492  1.00  0.00    -0.184 NA
ATOM      4  C   UNL     1       2.102  -0.885   1.245  1.00  0.00     0.170 C 
ATOM      5  N   UNL     1       2.845  -0.325   2.237  1.00  0.00    -0.359 N 
ATOM      6  S   UNL     1       0.535  -0.165   0.961  1.00  0.00    -0.046 SA
ATOM      7  C   UNL     1       0.259  -1.298  -0.300  1.00  0.00     0.083 C 
ATOM      8  C   UNL     1      -0.823  -1.430  -1.080  1.00  0.00     0.029 C 
ATOM      9  H   UNL     1       2.534   0.596   2.524  1.00  0.00     0.163 HD
ENDROOT
BRANCH   8  10
ATOM     10  C   UNL     1      -2.029  -0.600  -1.022  1.00  0.00    -0.024 A 
ATOM     11  C   UNL     1      -2.001   0.747  -1.382  1.00  0.00     0.010 A 
ATOM     12  C   UNL     1      -3.241  -1.172  -0.626  1.00  0.00     0.018 A 
ATOM     13  C   UNL     1      -3.172   1.513  -1.329  1.00  0.00     0.029 A 
ATOM     14  C   UNL     1      -4.415  -0.397  -0.574  1.00  0.00     0.001 A 
ATOM     15  C   UNL     1      -4.384   0.968  -0.929  1.00  0.00     0.070 A 
ATOM     16  C   UNL     1      -5.642  -0.944  -0.174  1.00  0.00     0.012 A 
ATOM     17  N   UNL     1      -5.480   1.746  -0.895  1.00  0.00    -0.256 NA
ATOM     18  C   UNL     1      -6.776  -0.142  -0.138  1.00  0.00     0.021 A 
ATOM     19  C   UNL     1      -6.644   1.184  -0.504  1.00  0.00     0.112 A 
ENDBRANCH   8  10
BRANCH   5  20
ATOM     20  C   UNL     1       4.283  -0.502   2.300  1.00  0.00     0.161 C 
BRANCH  20  21
ATOM     21  C   UNL     1       5.040   0.380   1.352  1.00  0.00     0.024 A 
ATOM     22  C   UNL     1       5.438   0.098   0.059  1.00  0.00     0.017 A 
ATOM     23  S   UNL     1       5.497   1.964   1.819  1.00  0.00    -0.147 S 
ATOM     24  C   UNL     1       6.130   1.187  -0.544  1.00  0.00     0.012 A 
ATOM     25  C   UNL     1       6.234   2.266   0.306  1.00  0.00     0.065 A 
ENDBRANCH  20  21
ENDBRANCH   5  20
TORSDOF 3
