REMARK SMILES Cc1nc(-c2cnn(C)c2-c2ccc(C(F)(F)F)cn2)c2c(N3CCC3)ncnn12
REMARK SMILES IDX 11 1 12 2 13 3 14 4 19 5 20 6 10 7 5 8 6 9 7 10 8 11 9 12
REMARK SMILES IDX 4 13 2 14 3 15 30 16 29 17 21 18 28 19 22 20 27 21 23 22
REMARK SMILES IDX 24 23 26 24 25 25 1 26 15 27 16 28 17 29 18 30
REMARK H PARENT
ROOT
ATOM      1  C   UNL     1       2.310  -0.189   0.232  1.00  0.00     0.089 A 
ATOM      2  C   UNL     1       2.030   0.488  -0.948  1.00  0.00     0.031 A 
ATOM      3  C   UNL     1       3.060   0.710  -1.862  1.00  0.00     0.017 A 
ATOM      4  C   UNL     1       4.350   0.260  -1.573  1.00  0.00     0.074 A 
ATOM      5  C   UNL     1       4.538  -0.400  -0.370  1.00  0.00     0.124 A 
ATOM      6  N   UNL     1       3.557  -0.620   0.537  1.00  0.00    -0.254 NA
ENDROOT
BRANCH   1   7
ATOM      7  C   UNL     1       1.291  -0.473   1.242  1.00  0.00     0.096 A 
ATOM      8  C   UNL     1      -0.061  -0.778   1.132  1.00  0.00     0.050 A 
ATOM      9  C   UNL     1      -0.517  -0.966   2.450  1.00  0.00     0.146 A 
ATOM     10  N   UNL     1       0.438  -0.752   3.353  1.00  0.00    -0.180 NA
ATOM     11  N   UNL     1       1.531  -0.486   2.603  1.00  0.00    -0.266 N 
ATOM     12  C   UNL     1       2.774  -0.212   3.290  1.00  0.00     0.174 C 
BRANCH   8  13
ATOM     13  C   UNL     1      -0.883  -0.959  -0.058  1.00  0.00     0.106 A 
ATOM     14  C   UNL     1      -1.310  -1.682  -2.033  1.00  0.00     0.128 A 
ATOM     15  N   UNL     1      -0.337  -1.602  -1.145  1.00  0.00    -0.231 NA
ATOM     16  N   UNL     1      -2.455  -1.090  -1.557  1.00  0.00    -0.212 N 
ATOM     17  N   UNL     1      -3.647  -1.002  -2.175  1.00  0.00    -0.154 NA
ATOM     18  C   UNL     1      -2.184  -0.588  -0.320  1.00  0.00     0.136 A 
ATOM     19  C   UNL     1      -4.543  -0.378  -1.479  1.00  0.00     0.247 C 
ATOM     20  C   UNL     1      -3.220   0.134   0.357  1.00  0.00     0.158 C 
ATOM     21  N   UNL     1      -4.374   0.198  -0.247  1.00  0.00    -0.215 NA
ATOM     22  N   UNL     1      -3.011   0.734   1.589  1.00  0.00    -0.355 N 
ATOM     23  C   UNL     1      -2.350   2.021   1.542  1.00  0.00     0.120 C 
ATOM     24  C   UNL     1      -4.142   1.322   2.271  1.00  0.00     0.120 C 
ATOM     25  C   UNL     1      -3.156   2.371   2.796  1.00  0.00     0.043 C 
ATOM     26  C   UNL     1      -1.238  -2.317  -3.369  1.00  0.00     0.090 C 
ENDBRANCH   8  13
ENDBRANCH   1   7
BRANCH   4  27
ATOM     27  C   UNL     1       5.495   0.435  -2.519  1.00  0.00     0.417 C 
ATOM     28  F   UNL     1       5.302   1.441  -3.417  1.00  0.00    -0.166 F 
ATOM     29  F   UNL     1       6.665   0.727  -1.885  1.00  0.00    -0.166 F 
ATOM     30  F   UNL     1       5.739  -0.682  -3.257  1.00  0.00    -0.166 F 
ENDBRANCH   4  27
TORSDOF 3
