REMARK SMILES CC(C)(C)c1cc(C=C(C#N)C#N)cc(Br)c1O
REMARK SMILES IDX 5 1 6 2 7 3 14 4 15 5 16 6 17 7 2 8 1 9 3 10 4 11 18 12 8 14
REMARK SMILES IDX 9 15 10 16 12 17 11 18 13 19
REMARK H PARENT 18 13
ROOT
ATOM      1  C   UNL     1      -0.628  -0.364  -0.295  1.00  0.00     0.001 A 
ATOM      2  C   UNL     1       0.444   0.545  -0.440  1.00  0.00     0.016 A 
ATOM      3  C   UNL     1       1.781   0.122  -0.529  1.00  0.00    -0.022 A 
ATOM      4  C   UNL     1       2.079  -1.239  -0.492  1.00  0.00     0.027 A 
ATOM      5  C   UNL     1       1.046  -2.159  -0.349  1.00  0.00     0.060 A 
ATOM      6  Br  UNL     1       1.480  -4.007  -0.298  1.00  0.00    -0.047 Br
ATOM      7  C   UNL     1      -0.288  -1.731  -0.250  1.00  0.00     0.133 A 
ENDROOT
BRANCH   1   8
ATOM      8  C   UNL     1      -2.090   0.130  -0.190  1.00  0.00    -0.009 C 
ATOM      9  C   UNL     1      -2.707  -0.295   1.161  1.00  0.00     0.016 C 
ATOM     10  C   UNL     1      -2.935  -0.435  -1.354  1.00  0.00     0.016 C 
ATOM     11  C   UNL     1      -2.232   1.672  -0.262  1.00  0.00     0.016 C 
ENDBRANCH   1   8
BRANCH   7  12
ATOM     12  O   UNL     1      -1.282  -2.664  -0.109  1.00  0.00    -0.506 OA
ATOM     13  H   UNL     1      -0.864  -3.544  -0.074  1.00  0.00     0.293 HD
ENDBRANCH   7  12
BRANCH   3  14
ATOM     14  C   UNL     1       2.838   1.130  -0.690  1.00  0.00     0.039 C 
ATOM     15  C   UNL     1       3.828   1.384   0.190  1.00  0.00     0.130 C 
ATOM     16  C   UNL     1       3.962   0.679   1.420  1.00  0.00     0.111 C 
ATOM     17  C   UNL     1       4.773   2.407  -0.108  1.00  0.00     0.111 C 
ATOM     18  N   UNL     1       4.075   0.096   2.416  1.00  0.00    -0.192 NA
ATOM     19  N   UNL     1       5.531   3.244  -0.374  1.00  0.00    -0.192 NA
ENDBRANCH   3  14
TORSDOF 3
