REMARK SMILES CC1=C(C)C(=O)C(CCCCC#CCCCC#CCO)=C(C)C1=O
REMARK SMILES IDX 11 1 12 2 10 3 9 4 8 5 7 6 2 7 3 8 23 9 5 10 21 11 24 12
REMARK SMILES IDX 6 13 1 14 4 15 22 16 13 17 14 18 15 19 16 20 17 21 18 22
REMARK SMILES IDX 19 23 20 24
REMARK H PARENT 20 25
ROOT
ATOM      1  C   UNL     1       0.519   0.218   2.927  1.00  0.00     0.089 C 
ATOM      2  C   UNL     1       1.271  -0.708   2.068  1.00  0.00    -0.103 C 
ENDROOT
BRANCH   1   3
ATOM      3  C   UNL     1       0.093   1.486   2.185  1.00  0.00     0.013 C 
BRANCH   3   4
ATOM      4  C   UNL     1      -0.802   1.267   0.958  1.00  0.00     0.006 C 
BRANCH   4   5
ATOM      5  C   UNL     1      -2.114   0.542   1.278  1.00  0.00     0.040 C 
BRANCH   5   6
ATOM      6  C   UNL     1      -3.003   0.435   0.057  1.00  0.00     0.007 C 
ATOM      7  C   UNL     1      -4.882   0.512  -2.151  1.00  0.00     0.003 C 
ATOM      8  C   UNL     1      -4.856   1.567  -1.317  1.00  0.00     0.003 C 
ATOM      9  C   UNL     1      -3.969  -0.647  -1.934  1.00  0.00     0.185 C 
ATOM     10  C   UNL     1      -3.911   1.597  -0.163  1.00  0.00     0.185 C 
ATOM     11  C   UNL     1      -3.028  -0.616  -0.781  1.00  0.00     0.004 C 
ATOM     12  O   UNL     1      -3.996  -1.613  -2.691  1.00  0.00    -0.289 OA
ATOM     13  O   UNL     1      -3.879   2.567   0.589  1.00  0.00    -0.289 OA
ATOM     14  C   UNL     1      -5.775   0.353  -3.351  1.00  0.00     0.049 C 
ATOM     15  C   UNL     1      -5.721   2.794  -1.412  1.00  0.00     0.049 C 
ATOM     16  C   UNL     1      -2.143  -1.828  -0.684  1.00  0.00     0.049 C 
ENDBRANCH   5   6
ENDBRANCH   4   5
ENDBRANCH   3   4
ENDBRANCH   1   3
BRANCH   2  17
ATOM     17  C   UNL     1       1.879  -1.465   1.362  1.00  0.00    -0.103 C 
ATOM     18  C   UNL     1       2.625  -2.386   0.492  1.00  0.00     0.090 C 
BRANCH  18  19
ATOM     19  C   UNL     1       3.822  -1.708  -0.174  1.00  0.00     0.026 C 
BRANCH  19  20
ATOM     20  C   UNL     1       4.927  -1.351   0.822  1.00  0.00     0.090 C 
ATOM     21  C   UNL     1       6.095  -0.782   0.132  1.00  0.00    -0.101 C 
BRANCH  21  22
ATOM     22  C   UNL     1       7.049  -0.320  -0.433  1.00  0.00    -0.075 C 
ATOM     23  C   UNL     1       8.215   0.240  -1.119  1.00  0.00     0.245 C 
BRANCH  23  24
ATOM     24  O   UNL     1       9.343  -0.602  -0.923  1.00  0.00    -0.384 OA
ATOM     25  H   UNL     1       9.380  -0.796   0.029  1.00  0.00     0.211 HD
ENDBRANCH  23  24
ENDBRANCH  21  22
ENDBRANCH  19  20
ENDBRANCH  18  19
ENDBRANCH   2  17
TORSDOF 9
