REMARK SMILES Cc1nc(Cn2cnc3c2c(=O)n(C)c(=O)n3C)no1
REMARK SMILES IDX 5 1 4 2 2 3 3 4 20 5 19 6 1 7 6 8 7 9 10 10 8 11 9 12 11 13
REMARK SMILES IDX 17 14 12 15 13 16 15 17 16 18 18 19 14 20
REMARK H PARENT
ROOT
ATOM      1  C   UNL     1       1.355  -0.072   1.581  1.00  0.00     0.205 C 
ENDROOT
BRANCH   1   2
ATOM      2  C   UNL     1       2.495  -0.497   0.734  1.00  0.00     0.191 A 
ATOM      3  C   UNL     1       4.322  -0.435  -0.281  1.00  0.00     0.223 A 
ATOM      4  N   UNL     1       3.582   0.314   0.506  1.00  0.00    -0.194 NA
ATOM      5  O   UNL     1       3.770  -1.654  -0.546  1.00  0.00    -0.340 OA
ATOM      6  N   UNL     1       2.553  -1.694   0.135  1.00  0.00    -0.061 NA
ATOM      7  C   UNL     1       5.628  -0.152  -0.901  1.00  0.00     0.114 C 
ENDBRANCH   1   2
BRANCH   1   8
ATOM      8  N   UNL     1       0.362   0.619   0.779  1.00  0.00    -0.317 N 
ATOM      9  C   UNL     1       0.481   1.910   0.322  1.00  0.00     0.203 A 
ATOM     10  C   UNL     1      -0.854   0.159   0.352  1.00  0.00     0.152 A 
ATOM     11  N   UNL     1      -0.576   2.283  -0.370  1.00  0.00    -0.218 NA
ATOM     12  C   UNL     1      -1.392   1.193  -0.355  1.00  0.00     0.167 A 
ATOM     13  C   UNL     1      -1.524  -1.083   0.531  1.00  0.00     0.282 C 
ATOM     14  N   UNL     1      -2.626   1.103  -0.953  1.00  0.00    -0.279 N 
ATOM     15  O   UNL     1      -1.075  -1.988   1.227  1.00  0.00    -0.267 OA
ATOM     16  N   UNL     1      -2.747  -1.146  -0.144  1.00  0.00    -0.261 N 
ATOM     17  C   UNL     1      -3.350  -0.084  -0.849  1.00  0.00     0.332 C 
ATOM     18  O   UNL     1      -4.475  -0.207  -1.343  1.00  0.00    -0.247 OA
ATOM     19  C   UNL     1      -3.169   2.239  -1.675  1.00  0.00     0.157 C 
ATOM     20  C   UNL     1      -3.515  -2.371  -0.040  1.00  0.00     0.159 C 
ENDBRANCH   1   8
TORSDOF 2
