REMARK SMILES S=C=Nc1cccc(C2(N3CCCCC3)CCCCC2)c1
REMARK SMILES IDX 4 1 5 2 6 3 7 4 8 5 21 6 3 7 1 8 2 9 9 10 16 11 20 12 17 13
REMARK SMILES IDX 19 14 18 15 10 16 11 17 15 18 12 19 14 20 13 21
REMARK H PARENT
ROOT
ATOM      1  C   UNL     1       3.235  -1.547  -0.806  1.00  0.00     0.074 A 
ATOM      2  C   UNL     1       3.334  -1.394  -2.189  1.00  0.00     0.029 A 
ATOM      3  C   UNL     1       2.441  -0.569  -2.865  1.00  0.00     0.003 A 
ATOM      4  C   UNL     1       1.436   0.103  -2.164  1.00  0.00     0.006 A 
ATOM      5  C   UNL     1       1.292  -0.028  -0.769  1.00  0.00    -0.026 A 
ATOM      6  C   UNL     1       2.205  -0.884  -0.117  1.00  0.00     0.034 A 
ENDROOT
BRANCH   1   7
ATOM      7  N   UNL     1       4.111  -2.407  -0.121  1.00  0.00    -0.195 NA
ATOM      8  S   UNL     1       6.506  -0.983   0.925  1.00  0.00    -0.006 S 
ATOM      9  C   UNL     1       5.054  -1.837   0.287  1.00  0.00     0.064 C 
ENDBRANCH   1   7
BRANCH   5  10
ATOM     10  C   UNL     1       0.160   0.700   0.017  1.00  0.00     0.046 C 
ATOM     11  C   UNL     1       0.716   1.202   1.404  1.00  0.00     0.027 C 
ATOM     12  C   UNL     1      -0.254   2.039  -0.706  1.00  0.00     0.027 C 
ATOM     13  C   UNL     1      -0.283   2.031   2.217  1.00  0.00     0.002 C 
ATOM     14  C   UNL     1      -1.274   2.878   0.070  1.00  0.00     0.002 C 
ATOM     15  C   UNL     1      -0.753   3.256   1.447  1.00  0.00     0.000 C 
BRANCH  10  16
ATOM     16  N   UNL     1      -1.054  -0.167   0.198  1.00  0.00    -0.294 NA
ATOM     17  C   UNL     1      -0.884  -1.317   1.103  1.00  0.00     0.085 C 
ATOM     18  C   UNL     1      -1.687  -0.612  -1.058  1.00  0.00     0.085 C 
ATOM     19  C   UNL     1      -2.227  -1.979   1.430  1.00  0.00     0.016 C 
ATOM     20  C   UNL     1      -3.056  -1.249  -0.802  1.00  0.00     0.016 C 
ATOM     21  C   UNL     1      -2.954  -2.415   0.168  1.00  0.00     0.003 C 
ENDBRANCH  10  16
ENDBRANCH   5  10
TORSDOF 3
