REMARK SMILES C/C(=N\NC(=S)NNC(=S)Nc1ccccc1Cl)c1ccccn1
REMARK SMILES IDX 4 1 5 2 6 3 7 4 3 7 2 8 1 9 19 10 20 11 24 12 21 13 23 14
REMARK SMILES IDX 22 15 8 16 9 17 10 18 11 19 12 22 13 23 17 24 14 25 16 26
REMARK SMILES IDX 15 27 18 28
REMARK H PARENT 4 5 7 6 8 20 11 21
ROOT
ATOM      1  N   UNL     1       2.009  -2.331   0.938  1.00  0.00    -0.252 N 
ATOM      2  C   UNL     1       0.664  -2.423   1.220  1.00  0.00     0.205 C 
ATOM      3  S   UNL     1       0.039  -3.804   1.923  1.00  0.00    -0.038 S 
ATOM      4  N   UNL     1      -0.051  -1.292   0.897  1.00  0.00    -0.273 N 
ATOM      5  H   UNL     1       2.595  -3.130   1.156  1.00  0.00     0.193 HD
ATOM      6  H   UNL     1       0.446  -0.620   0.311  1.00  0.00     0.190 HD
ENDROOT
BRANCH   1   7
ATOM      7  N   UNL     1       2.518  -1.223   0.324  1.00  0.00    -0.176 NA
ATOM      8  C   UNL     1       3.797  -1.177   0.062  1.00  0.00     0.083 C 
ATOM      9  C   UNL     1       4.759  -2.297   0.411  1.00  0.00     0.071 C 
BRANCH   8  10
ATOM     10  C   UNL     1       4.350   0.040  -0.620  1.00  0.00     0.086 A 
ATOM     11  C   UNL     1       3.512   1.103  -0.946  1.00  0.00     0.030 A 
ATOM     12  N   UNL     1       5.678   0.036  -0.894  1.00  0.00    -0.255 NA
ATOM     13  C   UNL     1       4.061   2.214  -1.581  1.00  0.00     0.004 A 
ATOM     14  C   UNL     1       6.180   1.128  -1.510  1.00  0.00     0.112 A 
ATOM     15  C   UNL     1       5.421   2.229  -1.870  1.00  0.00     0.020 A 
ENDBRANCH   8  10
ENDBRANCH   1   7
BRANCH   4  16
ATOM     16  N   UNL     1      -1.450  -1.299   0.824  1.00  0.00    -0.274 N 
ATOM     17  C   UNL     1      -2.145  -0.184   0.347  1.00  0.00     0.189 C 
ATOM     18  S   UNL     1      -1.376   1.122  -0.373  1.00  0.00    -0.039 S 
ATOM     19  N   UNL     1      -3.509  -0.388   0.500  1.00  0.00    -0.330 N 
ATOM     20  H   UNL     1      -1.901  -1.909   1.502  1.00  0.00     0.190 HD
ATOM     21  H   UNL     1      -3.772  -1.369   0.525  1.00  0.00     0.169 HD
BRANCH  19  22
ATOM     22  C   UNL     1      -4.621   0.483   0.378  1.00  0.00     0.059 A 
ATOM     23  C   UNL     1      -4.536   1.872   0.497  1.00  0.00     0.028 A 
ATOM     24  C   UNL     1      -5.896  -0.089   0.195  1.00  0.00     0.064 A 
ATOM     25  C   UNL     1      -5.681   2.672   0.390  1.00  0.00     0.002 A 
ATOM     26  C   UNL     1      -7.040   0.708   0.088  1.00  0.00     0.023 A 
ATOM     27  C   UNL     1      -6.929   2.092   0.180  1.00  0.00     0.002 A 
ATOM     28  Cl  UNL     1      -6.094  -1.808   0.087  1.00  0.00    -0.082 Cl
ENDBRANCH  19  22
ENDBRANCH   4  16
TORSDOF 4
