REMARK SMILES Cc1cc(C)c(S(=O)(=O)n2cc(C)cc2C)c(C)c1
REMARK SMILES IDX 7 1 8 2 9 3 6 4 2 5 3 6 19 7 4 8 17 9 1 10 5 11 18 12 10 13
REMARK SMILES IDX 11 14 15 15 12 16 14 17 16 18 13 19
REMARK H PARENT
ROOT
ATOM      1  S   UNL     1      -0.260  -1.701  -0.597  1.00  0.00     0.268 S 
ATOM      2  O   UNL     1      -0.650  -1.939  -1.973  1.00  0.00    -0.201 OA
ATOM      3  O   UNL     1       0.047  -2.804   0.294  1.00  0.00    -0.201 OA
ENDROOT
BRANCH   1   4
ATOM      4  C   UNL     1       1.088  -0.511  -0.490  1.00  0.00     0.094 A 
ATOM      5  C   UNL     1       3.164   1.393  -0.269  1.00  0.00    -0.051 A 
ATOM      6  C   UNL     1       2.711   0.978  -1.522  1.00  0.00     0.008 A 
ATOM      7  C   UNL     1       2.601   0.826   0.874  1.00  0.00     0.008 A 
ATOM      8  C   UNL     1       1.681   0.028  -1.659  1.00  0.00    -0.030 A 
ATOM      9  C   UNL     1       1.562  -0.120   0.790  1.00  0.00    -0.030 A 
ATOM     10  C   UNL     1       4.291   2.378  -0.155  1.00  0.00     0.044 C 
ATOM     11  C   UNL     1       1.288  -0.343  -3.064  1.00  0.00     0.046 C 
ATOM     12  C   UNL     1       1.060  -0.692   2.091  1.00  0.00     0.046 C 
ENDBRANCH   1   4
BRANCH   1  13
ATOM     13  N   UNL     1      -1.610  -0.875   0.061  1.00  0.00    -0.246 N 
ATOM     14  C   UNL     1      -1.954   0.398  -0.326  1.00  0.00     0.107 A 
ATOM     15  C   UNL     1      -2.591  -1.405   0.874  1.00  0.00     0.031 A 
ATOM     16  C   UNL     1      -3.114   0.750   0.336  1.00  0.00    -0.032 A 
ATOM     17  C   UNL     1      -3.509  -0.390   1.091  1.00  0.00     0.027 A 
ATOM     18  C   UNL     1      -2.606  -2.800   1.387  1.00  0.00     0.066 C 
ATOM     19  C   UNL     1      -3.833   2.046   0.247  1.00  0.00     0.046 C 
ENDBRANCH   1  13
TORSDOF 2
