REMARK SMILES CC(=O)c1c(O)c(C)c(O)c2c1OC1=CC(=O)C(=C(C)O)C(=O)[C@]12C
REMARK SMILES IDX 4 1 5 2 7 3 8 4 9 5 11 6 12 7 13 8 14 9 15 10 16 11 17 12
REMARK SMILES IDX 18 13 19 14 20 15 22 16 23 17 24 18 25 19 2 20 3 21 1 22
REMARK SMILES IDX 6 23 10 25 21 27
REMARK H PARENT 6 24 10 26 21 28
ROOT
ATOM      1  C   UNL     1      -2.813   0.773   0.494  1.00  0.00     0.103 A 
ATOM      2  C   UNL     1      -3.369  -0.453   0.924  1.00  0.00     0.136 A 
ATOM      3  C   UNL     1      -2.646  -1.671   0.876  1.00  0.00     0.034 A 
ATOM      4  C   UNL     1      -3.292  -2.953   1.329  1.00  0.00     0.052 C 
ATOM      5  C   UNL     1      -1.320  -1.645   0.429  1.00  0.00     0.130 A 
ATOM      6  C   UNL     1      -0.755  -0.450   0.025  1.00  0.00     0.059 A 
ATOM      7  C   UNL     1      -1.501   0.736   0.048  1.00  0.00     0.149 A 
ATOM      8  O   UNL     1      -0.747   1.804  -0.393  1.00  0.00    -0.459 OA
ATOM      9  C   UNL     1       0.553   1.344  -0.584  1.00  0.00     0.126 C 
ATOM     10  C   UNL     1       1.605   2.169  -0.625  1.00  0.00     0.096 C 
ATOM     11  C   UNL     1       2.977   1.607  -0.542  1.00  0.00     0.196 C 
ATOM     12  O   UNL     1       3.931   2.304  -0.863  1.00  0.00    -0.289 OA
ATOM     13  C   UNL     1       3.082   0.204  -0.020  1.00  0.00     0.104 C 
ATOM     14  C   UNL     1       4.242  -0.481   0.024  1.00  0.00     0.104 C 
ATOM     15  C   UNL     1       5.582   0.074  -0.376  1.00  0.00     0.087 C 
ATOM     16  C   UNL     1       1.797  -0.460   0.408  1.00  0.00     0.188 C 
ATOM     17  O   UNL     1       1.717  -1.095   1.457  1.00  0.00    -0.292 OA
ATOM     18  C   UNL     1       0.618  -0.173  -0.513  1.00  0.00     0.121 C 
ATOM     19  C   UNL     1       0.805  -0.810  -1.895  1.00  0.00     0.034 C 
ENDROOT
BRANCH   1  20
ATOM     20  C   UNL     1      -3.627   2.022   0.545  1.00  0.00     0.167 C 
ATOM     21  O   UNL     1      -4.745   1.977   1.063  1.00  0.00    -0.294 OA
ATOM     22  C   UNL     1      -3.097   3.308  -0.028  1.00  0.00     0.094 C 
ENDBRANCH   1  20
BRANCH   2  23
ATOM     23  O   UNL     1      -4.654  -0.529   1.414  1.00  0.00    -0.507 OA
ATOM     24  H   UNL     1      -5.037   0.379   1.432  1.00  0.00     0.293 HD
ENDBRANCH   2  23
BRANCH   5  25
ATOM     25  O   UNL     1      -0.553  -2.765   0.353  1.00  0.00    -0.507 OA
ATOM     26  H   UNL     1      -0.714  -3.293   1.154  1.00  0.00     0.293 HD
ENDBRANCH   5  25
BRANCH  14  27
ATOM     27  O   UNL     1       4.252  -1.811   0.417  1.00  0.00    -0.512 OA
ATOM     28  H   UNL     1       5.161  -2.089   0.623  1.00  0.00     0.293 HD
ENDBRANCH  14  27
TORSDOF 4
