REMARK SMILES N#C[C@@H]1C[C@@H]2C[C@@H]2N1C(=O)[C@@H](N)[C@@]12C[C@@H]3C[C@@H](C[C@@](O)(C3)C1)C2
REMARK SMILES IDX 13 1 14 2 15 3 16 4 17 5 18 6 19 7 21 8 22 9 23 10 11 11
REMARK SMILES IDX 9 12 10 13 8 14 1 15 2 16 3 17 4 18 5 19 7 20 6 21 12 22
REMARK SMILES IDX 20 25
REMARK H PARENT 12 23 12 24 20 26
ROOT
ATOM      1  C   UNL     1      -0.881  -0.215   0.525  1.00  0.00    -0.002 C 
ATOM      2  C   UNL     1      -1.494  -1.387   1.358  1.00  0.00     0.013 C 
ATOM      3  C   UNL     1      -2.993  -1.566   1.062  1.00  0.00    -0.007 C 
ATOM      4  C   UNL     1      -3.186  -1.870  -0.431  1.00  0.00     0.007 C 
ATOM      5  C   UNL     1      -2.628  -0.716  -1.276  1.00  0.00    -0.007 C 
ATOM      6  C   UNL     1      -3.362   0.584  -0.915  1.00  0.00     0.039 C 
ATOM      7  C   UNL     1      -3.176   0.894   0.579  1.00  0.00     0.066 C 
ATOM      8  C   UNL     1      -3.732  -0.269   1.416  1.00  0.00     0.039 C 
ATOM      9  C   UNL     1      -1.676   1.070   0.883  1.00  0.00     0.044 C 
ATOM     10  C   UNL     1      -1.128  -0.549  -0.977  1.00  0.00     0.013 C 
ENDROOT
BRANCH   1  11
ATOM     11  C   UNL     1       0.657  -0.111   0.810  1.00  0.00     0.147 C 
BRANCH  11  12
ATOM     12  C   UNL     1       1.434   0.843  -0.144  1.00  0.00     0.241 C 
ATOM     13  O   UNL     1       0.928   1.861  -0.620  1.00  0.00    -0.273 OA
BRANCH  12  14
ATOM     14  N   UNL     1       2.754   0.526  -0.404  1.00  0.00    -0.322 N 
ATOM     15  N   UNL     1       2.918   0.898  -3.851  1.00  0.00    -0.196 NA
ATOM     16  C   UNL     1       3.184   1.103  -2.738  1.00  0.00     0.087 C 
ATOM     17  C   UNL     1       3.564   1.341  -1.328  1.00  0.00     0.189 C 
ATOM     18  C   UNL     1       5.030   0.906  -1.082  1.00  0.00     0.046 C 
ATOM     19  C   UNL     1       4.966  -0.348  -0.248  1.00  0.00     0.017 C 
ATOM     20  C   UNL     1       3.537  -0.522   0.183  1.00  0.00     0.090 C 
ATOM     21  C   UNL     1       4.199  -1.575  -0.661  1.00  0.00     0.031 C 
ENDBRANCH  12  14
ENDBRANCH  11  12
BRANCH  11  22
ATOM     22  N   UNL     1       0.976   0.297   2.198  1.00  0.00    -0.319 NA
ATOM     23  H   UNL     1       0.434  -0.253   2.859  1.00  0.00     0.119 HD
ATOM     24  H   UNL     1       0.672   1.265   2.327  1.00  0.00     0.119 HD
ENDBRANCH  11  22
ENDBRANCH   1  11
BRANCH   7  25
ATOM     25  O   UNL     1      -3.858   2.092   0.921  1.00  0.00    -0.390 OA
ATOM     26  H   UNL     1      -4.786   1.998   0.648  1.00  0.00     0.211 HD
ENDBRANCH   7  25
TORSDOF 5
