REMARK SMILES COCCO[C@@H]1c2ccn3c(C)c(C)nc3c2N[C@H](c2ccccc2)[C@H]1O
REMARK SMILES IDX 4 1 3 2 2 3 1 4 5 5 6 6 7 7 26 8 8 9 17 10 19 11 9 12 16 13
REMARK SMILES IDX 18 14 10 15 15 16 11 17 13 18 12 20 14 21 27 22 20 24 21 25
REMARK SMILES IDX 25 26 22 27 24 28 23 29
REMARK H PARENT 18 19 27 23
ROOT
ATOM      1  C   UNL     1       3.654  -0.844  -0.683  1.00  0.00     0.189 C 
ENDROOT
BRANCH   1   2
ATOM      2  C   UNL     1       3.961  -2.131   0.081  1.00  0.00     0.188 C 
BRANCH   2   3
ATOM      3  O   UNL     1       5.347  -2.169   0.413  1.00  0.00    -0.382 OA
ATOM      4  C   UNL     1       5.693  -3.373   1.085  1.00  0.00     0.195 C 
ENDBRANCH   2   3
ENDBRANCH   1   2
BRANCH   1   5
ATOM      5  O   UNL     1       2.270  -0.760  -1.025  1.00  0.00    -0.368 OA
BRANCH   5   6
ATOM      6  C   UNL     1       1.431  -0.178  -0.004  1.00  0.00     0.181 C 
ATOM      7  C   UNL     1       0.068  -0.847  -0.087  1.00  0.00     0.012 C 
ATOM      8  C   UNL     1       1.412   1.374  -0.169  1.00  0.00     0.174 C 
ATOM      9  C   UNL     1       0.022  -2.310  -0.165  1.00  0.00     0.027 C 
ATOM     10  C   UNL     1      -1.073  -0.114  -0.064  1.00  0.00     0.085 C 
ATOM     11  C   UNL     1       0.137   1.990   0.464  1.00  0.00     0.141 C 
ATOM     12  C   UNL     1      -1.164  -2.934  -0.220  1.00  0.00     0.093 C 
ATOM     13  C   UNL     1      -2.339  -0.794  -0.106  1.00  0.00     0.161 A 
ATOM     14  N   UNL     1      -1.037   1.264   0.022  1.00  0.00    -0.372 N 
ATOM     15  N   UNL     1      -2.334  -2.180  -0.189  1.00  0.00    -0.302 N 
ATOM     16  N   UNL     1      -3.569  -0.319  -0.054  1.00  0.00    -0.231 NA
ATOM     17  C   UNL     1      -3.654  -2.584  -0.221  1.00  0.00     0.042 A 
ATOM     18  C   UNL     1      -4.393  -1.415  -0.135  1.00  0.00     0.059 A 
ATOM     19  H   UNL     1      -1.945   1.667   0.260  1.00  0.00     0.161 HD
ATOM     20  C   UNL     1      -4.080  -4.000  -0.324  1.00  0.00     0.067 C 
ATOM     21  C   UNL     1      -5.864  -1.243  -0.123  1.00  0.00     0.069 C 
BRANCH   8  22
ATOM     22  O   UNL     1       2.598   1.938   0.439  1.00  0.00    -0.388 OA
ATOM     23  H   UNL     1       2.507   1.878   1.404  1.00  0.00     0.211 HD
ENDBRANCH   8  22
BRANCH  11  24
ATOM     24  C   UNL     1      -0.029   3.462   0.128  1.00  0.00    -0.023 A 
ATOM     25  C   UNL     1      -0.350   3.880  -1.175  1.00  0.00     0.006 A 
ATOM     26  C   UNL     1       0.141   4.440   1.121  1.00  0.00     0.006 A 
ATOM     27  C   UNL     1      -0.496   5.235  -1.475  1.00  0.00     0.000 A 
ATOM     28  C   UNL     1      -0.005   5.796   0.819  1.00  0.00     0.000 A 
ATOM     29  C   UNL     1      -0.322   6.192  -0.479  1.00  0.00     0.000 A 
ENDBRANCH  11  24
ENDBRANCH   5   6
ENDBRANCH   1   5
TORSDOF 6
