REMARK SMILES OCCn1cc(-c2ccc3c(c2)CC/C3=N\O)c(-c2ccncc2)n1
REMARK SMILES IDX 4 1 5 2 6 3 18 4 25 5 3 6 2 7 1 8 7 10 8 11 12 12 9 13 11 14
REMARK SMILES IDX 10 15 13 16 15 17 14 18 16 19 17 20 19 22 20 23 24 24 21 25
REMARK SMILES IDX 23 26 22 27
REMARK H PARENT 1 9 17 21
ROOT
ATOM      1  N   UNL     1      -2.843   1.445   0.566  1.00  0.00    -0.269 N 
ATOM      2  C   UNL     1      -1.519   1.576   0.849  1.00  0.00     0.118 A 
ATOM      3  C   UNL     1      -0.900   0.477   0.291  1.00  0.00     0.028 A 
ATOM      4  C   UNL     1      -1.953  -0.267  -0.332  1.00  0.00     0.100 A 
ATOM      5  N   UNL     1      -3.139   0.337  -0.132  1.00  0.00    -0.172 NA
ENDROOT
BRANCH   1   6
ATOM      6  C   UNL     1      -3.905   2.351   0.945  1.00  0.00     0.172 C 
BRANCH   6   7
ATOM      7  C   UNL     1      -4.723   1.818   2.110  1.00  0.00     0.179 C 
BRANCH   7   8
ATOM      8  O   UNL     1      -5.750   2.743   2.460  1.00  0.00    -0.394 OA
ATOM      9  H   UNL     1      -6.455   2.662   1.793  1.00  0.00     0.210 HD
ENDBRANCH   7   8
ENDBRANCH   6   7
ENDBRANCH   1   6
BRANCH   3  10
ATOM     10  C   UNL     1       0.522   0.221   0.429  1.00  0.00    -0.014 A 
ATOM     11  C   UNL     1       0.967  -1.021   0.931  1.00  0.00     0.009 A 
ATOM     12  C   UNL     1       1.455   1.207   0.064  1.00  0.00     0.013 A 
ATOM     13  C   UNL     1       2.330  -1.291   1.065  1.00  0.00     0.011 A 
ATOM     14  C   UNL     1       2.809   0.933   0.200  1.00  0.00    -0.038 A 
ATOM     15  C   UNL     1       3.219  -0.300   0.693  1.00  0.00     0.003 A 
ATOM     16  C   UNL     1       3.958   1.831  -0.131  1.00  0.00     0.043 C 
ATOM     17  C   UNL     1       4.672  -0.316   0.729  1.00  0.00     0.087 C 
ATOM     18  C   UNL     1       5.204   1.005   0.224  1.00  0.00     0.065 C 
ATOM     19  N   UNL     1       5.363  -1.331   1.139  1.00  0.00    -0.093 NA
BRANCH  19  20
ATOM     20  O   UNL     1       6.732  -1.057   1.059  1.00  0.00    -0.411 OA
ATOM     21  H   UNL     1       7.130  -1.884   1.390  1.00  0.00     0.330 HD
ENDBRANCH  19  20
ENDBRANCH   3  10
BRANCH   4  22
ATOM     22  C   UNL     1      -1.882  -1.512  -1.098  1.00  0.00     0.006 A 
ATOM     23  C   UNL     1      -2.902  -2.461  -0.987  1.00  0.00     0.030 A 
ATOM     24  C   UNL     1      -0.817  -1.774  -1.963  1.00  0.00     0.030 A 
ATOM     25  C   UNL     1      -2.803  -3.630  -1.722  1.00  0.00     0.111 A 
ATOM     26  C   UNL     1      -0.808  -2.974  -2.654  1.00  0.00     0.111 A 
ATOM     27  N   UNL     1      -1.774  -3.911  -2.549  1.00  0.00    -0.265 NA
ENDBRANCH   4  22
TORSDOF 6
