REMARK SMILES CN(C/C=C/C#CC(C)(C)C)Cc1cccc2ccccc12
REMARK SMILES IDX 3 1 2 2 1 3 12 4 13 5 14 6 22 7 15 8 21 9 17 10 16 11 20 12
REMARK SMILES IDX 18 13 19 14 4 15 5 16 6 17 7 18 8 19 9 20 10 21 11 22
REMARK H PARENT
ROOT
ATOM      1  C   UNL     1      -0.346   1.949  -0.746  1.00  0.00     0.112 C 
ENDROOT
BRANCH   1   2
ATOM      2  N   UNL     1      -1.431   1.351   0.037  1.00  0.00    -0.298 NA
ATOM      3  C   UNL     1      -1.403   1.755   1.441  1.00  0.00     0.106 C 
BRANCH   2   4
ATOM      4  C   UNL     1      -1.496  -0.110  -0.132  1.00  0.00     0.120 C 
BRANCH   4   5
ATOM      5  C   UNL     1      -2.788  -0.734   0.376  1.00  0.00    -0.026 A 
ATOM      6  C   UNL     1      -2.717  -1.544   1.527  1.00  0.00     0.006 A 
ATOM      7  C   UNL     1      -4.042  -0.538  -0.270  1.00  0.00    -0.014 A 
ATOM      8  C   UNL     1      -3.854  -2.158   2.039  1.00  0.00     0.001 A 
ATOM      9  C   UNL     1      -4.216   0.261  -1.423  1.00  0.00     0.009 A 
ATOM     10  C   UNL     1      -5.192  -1.176   0.263  1.00  0.00    -0.018 A 
ATOM     11  C   UNL     1      -5.082  -1.976   1.409  1.00  0.00     0.009 A 
ATOM     12  C   UNL     1      -5.466   0.421  -2.027  1.00  0.00     0.001 A 
ATOM     13  C   UNL     1      -6.442  -1.006  -0.356  1.00  0.00     0.009 A 
ATOM     14  C   UNL     1      -6.579  -0.214  -1.495  1.00  0.00     0.001 A 
ENDBRANCH   4   5
ENDBRANCH   2   4
ENDBRANCH   1   2
BRANCH   1  15
ATOM     15  C   UNL     1       1.045   1.517  -0.376  1.00  0.00    -0.003 C 
ATOM     16  C   UNL     1       1.877   0.879  -1.212  1.00  0.00     0.057 C 
ATOM     17  C   UNL     1       3.185   0.506  -0.807  1.00  0.00    -0.075 C 
BRANCH  17  18
ATOM     18  C   UNL     1       4.292   0.189  -0.466  1.00  0.00    -0.093 C 
ATOM     19  C   UNL     1       5.656  -0.201  -0.042  1.00  0.00     0.023 C 
ATOM     20  C   UNL     1       6.029  -1.540  -0.692  1.00  0.00     0.025 C 
ATOM     21  C   UNL     1       5.692  -0.344   1.486  1.00  0.00     0.025 C 
ATOM     22  C   UNL     1       6.654   0.880  -0.480  1.00  0.00     0.025 C 
ENDBRANCH  17  18
ENDBRANCH   1  15
TORSDOF 5
