REMARK SMILES Oc1cc(O)c2cc(O)c(-c3cc(O)c(O)c(O)c3)[o+]c2c1
REMARK SMILES IDX 2 1 3 2 4 3 6 4 7 5 8 6 10 7 20 8 21 9 22 10 1 11 5 13 11 15
REMARK SMILES IDX 12 16 19 17 13 18 17 19 15 20 14 21 18 23 16 25 9 27
REMARK H PARENT 1 12 5 14 14 22 18 24 16 26 9 28
ROOT
ATOM      1  C   UNL     1      -4.004   0.919   1.573  1.00  0.00     0.128 A 
ATOM      2  C   UNL     1      -4.517  -0.351   1.335  1.00  0.00     0.093 A 
ATOM      3  C   UNL     1      -3.715  -1.310   0.721  1.00  0.00     0.136 A 
ATOM      4  C   UNL     1      -2.393  -1.021   0.337  1.00  0.00     0.125 A 
ATOM      5  C   UNL     1      -1.546  -1.957  -0.267  1.00  0.00     0.078 A 
ATOM      6  C   UNL     1      -0.229  -1.629  -0.565  1.00  0.00     0.223 A 
ATOM      7  C   UNL     1       0.278  -0.340  -0.289  1.00  0.00     0.402 A 
ATOM      8  O   UNL     1      -0.611   0.676   0.195  1.00  0.00    -0.202 OA
ATOM      9  C   UNL     1      -1.912   0.273   0.589  1.00  0.00     0.368 A 
ATOM     10  C   UNL     1      -2.708   1.241   1.203  1.00  0.00     0.162 A 
ENDROOT
BRANCH   1  11
ATOM     11  O   UNL     1      -4.828   1.819   2.175  1.00  0.00    -0.507 OA
ATOM     12  H   UNL     1      -4.396   2.682   2.305  1.00  0.00     0.293 HD
ENDBRANCH   1  11
BRANCH   3  13
ATOM     13  O   UNL     1      -4.206  -2.564   0.485  1.00  0.00    -0.507 OA
ATOM     14  H   UNL     1      -5.131  -2.630   0.792  1.00  0.00     0.293 HD
ENDBRANCH   3  13
BRANCH   7  15
ATOM     15  C   UNL     1       1.657   0.143  -0.502  1.00  0.00     0.091 A 
ATOM     16  C   UNL     1       1.873   1.533  -0.656  1.00  0.00     0.068 A 
ATOM     17  C   UNL     1       2.788  -0.702  -0.529  1.00  0.00     0.068 A 
ATOM     18  C   UNL     1       3.154   2.052  -0.846  1.00  0.00     0.162 A 
ATOM     19  C   UNL     1       4.063  -0.172  -0.722  1.00  0.00     0.162 A 
ATOM     20  C   UNL     1       4.247   1.198  -0.881  1.00  0.00     0.200 A 
BRANCH  18  21
ATOM     21  O   UNL     1       3.349   3.394  -0.998  1.00  0.00    -0.504 OA
ATOM     22  H   UNL     1       2.508   3.874  -0.975  1.00  0.00     0.293 HD
ENDBRANCH  18  21
BRANCH  19  23
ATOM     23  O   UNL     1       5.177  -0.964  -0.758  1.00  0.00    -0.504 OA
ATOM     24  H   UNL     1       4.927  -1.900  -0.676  1.00  0.00     0.293 HD
ENDBRANCH  19  23
BRANCH  20  25
ATOM     25  O   UNL     1       5.508   1.688  -1.066  1.00  0.00    -0.502 OA
ATOM     26  H   UNL     1       6.101   0.912  -1.049  1.00  0.00     0.293 HD
ENDBRANCH  20  25
ENDBRANCH   7  15
BRANCH   6  27
ATOM     27  O   UNL     1       0.562  -2.596  -1.136  1.00  0.00    -0.500 OA
ATOM     28  H   UNL     1       0.051  -3.403  -1.342  1.00  0.00     0.294 HD
ENDBRANCH   6  27
TORSDOF 7
