REMARK SMILES CC1=C(c2ccc(NC3=C(C)C(=O)CC3)cc2)NNC(=O)C1
REMARK SMILES IDX 4 1 5 2 6 3 7 4 16 5 17 6 3 7 2 8 22 9 18 10 20 11 19 12
REMARK SMILES IDX 21 13 1 14 8 17 9 19 10 20 15 21 12 22 14 23 13 24 11 25
REMARK H PARENT 18 15 19 16 8 18
ROOT
ATOM      1  C   UNL     1      -1.711  -0.211  -0.225  1.00  0.00    -0.001 A 
ATOM      2  C   UNL     1      -0.919  -0.033   0.913  1.00  0.00     0.012 A 
ATOM      3  C   UNL     1       0.432   0.311   0.790  1.00  0.00     0.027 A 
ATOM      4  C   UNL     1       1.021   0.488  -0.465  1.00  0.00     0.038 A 
ATOM      5  C   UNL     1       0.217   0.301  -1.601  1.00  0.00     0.027 A 
ATOM      6  C   UNL     1      -1.133  -0.045  -1.486  1.00  0.00     0.012 A 
ENDROOT
BRANCH   1   7
ATOM      7  C   UNL     1      -3.129  -0.586  -0.102  1.00  0.00     0.061 C 
ATOM      8  C   UNL     1      -4.090   0.305   0.210  1.00  0.00    -0.038 C 
ATOM      9  C   UNL     1      -5.519  -0.168   0.336  1.00  0.00     0.134 C 
ATOM     10  N   UNL     1      -3.414  -1.917  -0.338  1.00  0.00    -0.298 N 
ATOM     11  C   UNL     1      -5.740  -1.673   0.203  1.00  0.00     0.242 C 
ATOM     12  N   UNL     1      -4.631  -2.471   0.055  1.00  0.00    -0.270 N 
ATOM     13  O   UNL     1      -6.866  -2.170   0.252  1.00  0.00    -0.273 OA
ATOM     14  C   UNL     1      -3.893   1.776   0.447  1.00  0.00     0.042 C 
ATOM     15  H   UNL     1      -2.606  -2.528  -0.204  1.00  0.00     0.188 HD
ATOM     16  H   UNL     1      -4.804  -3.442  -0.184  1.00  0.00     0.191 HD
ENDBRANCH   1   7
BRANCH   4  17
ATOM     17  N   UNL     1       2.381   0.792  -0.650  1.00  0.00    -0.359 N 
ATOM     18  H   UNL     1       2.570   1.297  -1.510  1.00  0.00     0.166 HD
BRANCH  17  19
ATOM     19  C   UNL     1       3.501   0.367   0.033  1.00  0.00     0.022 C 
ATOM     20  C   UNL     1       4.758   0.770  -0.220  1.00  0.00     0.011 C 
ATOM     21  C   UNL     1       3.440  -0.694   1.107  1.00  0.00     0.062 C 
ATOM     22  C   UNL     1       5.643  -0.022   0.652  1.00  0.00     0.160 C 
ATOM     23  C   UNL     1       4.885  -1.045   1.431  1.00  0.00     0.087 C 
ATOM     24  O   UNL     1       6.855   0.132   0.698  1.00  0.00    -0.294 OA
ATOM     25  C   UNL     1       5.309   1.768  -1.166  1.00  0.00     0.050 C 
ENDBRANCH  17  19
ENDBRANCH   4  17
TORSDOF 3
