REMARK SMILES OC[C@@H](O)[C@H]1O[C@@H]2O[C@H](C(Cl)(Cl)Cl)O[C@@H]2[C@H]1O
REMARK SMILES IDX 3 1 2 2 1 3 4 5 5 7 6 8 16 9 7 10 15 11 8 12 14 13 9 14
REMARK SMILES IDX 17 15 10 17 11 18 12 19 13 20
REMARK H PARENT 1 4 4 6 17 16
ROOT
ATOM      1  C   UNL     1       2.309   0.267  -0.372  1.00  0.00     0.171 C 
ENDROOT
BRANCH   1   2
ATOM      2  C   UNL     1       3.364  -0.507   0.431  1.00  0.00     0.190 C 
BRANCH   2   3
ATOM      3  O   UNL     1       3.828   0.243   1.547  1.00  0.00    -0.394 OA
ATOM      4  H   UNL     1       4.311   1.017   1.211  1.00  0.00     0.210 HD
ENDBRANCH   2   3
ENDBRANCH   1   2
BRANCH   1   5
ATOM      5  O   UNL     1       1.982  -0.422  -1.586  1.00  0.00    -0.388 OA
ATOM      6  H   UNL     1       2.814  -0.575  -2.068  1.00  0.00     0.211 HD
ENDBRANCH   1   5
BRANCH   1   7
ATOM      7  C   UNL     1       1.035   0.597   0.439  1.00  0.00     0.184 C 
ATOM      8  O   UNL     1       0.276   1.586  -0.308  1.00  0.00    -0.341 OA
ATOM      9  C   UNL     1       0.041  -0.536   0.695  1.00  0.00     0.180 C 
ATOM     10  C   UNL     1      -0.805   0.916  -0.959  1.00  0.00     0.285 C 
ATOM     11  C   UNL     1      -0.788  -0.543  -0.575  1.00  0.00     0.209 C 
ATOM     12  O   UNL     1      -2.054   1.396  -0.474  1.00  0.00    -0.316 OA
ATOM     13  O   UNL     1      -2.139  -0.938  -0.328  1.00  0.00    -0.337 OA
ATOM     14  C   UNL     1      -2.928   0.256  -0.516  1.00  0.00     0.305 C 
BRANCH   9  15
ATOM     15  O   UNL     1       0.607  -1.805   0.977  1.00  0.00    -0.387 OA
ATOM     16  H   UNL     1      -0.136  -2.432   1.059  1.00  0.00     0.211 HD
ENDBRANCH   9  15
BRANCH  14  17
ATOM     17  C   UNL     1      -4.120   0.366   0.483  1.00  0.00     0.241 C 
ATOM     18  Cl  UNL     1      -5.200  -1.066   0.328  1.00  0.00    -0.078 Cl
ATOM     19  Cl  UNL     1      -5.103   1.831   0.136  1.00  0.00    -0.078 Cl
ATOM     20  Cl  UNL     1      -3.545   0.453   2.182  1.00  0.00    -0.078 Cl
ENDBRANCH  14  17
ENDBRANCH   1   7
TORSDOF 6
