REMARK SMILES Cc1cc(C)c(N)c(C#Cc2cccc(F)c2)n1
REMARK SMILES IDX 1 1 2 2 3 3 4 4 5 5 6 6 8 7 9 8 18 9 7 10 10 13 11 14 12 15
REMARK SMILES IDX 17 16 13 17 15 18 14 19 16 20
REMARK H PARENT 7 11 7 12
ROOT
ATOM      1  C   UNL     1      -3.079   3.327  -0.117  1.00  0.00     0.067 C 
ATOM      2  C   UNL     1      -2.661   1.897  -0.280  1.00  0.00     0.039 A 
ATOM      3  C   UNL     1      -3.612   0.916  -0.546  1.00  0.00     0.029 A 
ATOM      4  C   UNL     1      -3.213  -0.421  -0.694  1.00  0.00    -0.023 A 
ATOM      5  C   UNL     1      -4.259  -1.472  -0.941  1.00  0.00     0.047 C 
ATOM      6  C   UNL     1      -1.847  -0.739  -0.614  1.00  0.00     0.069 A 
ATOM      7  C   UNL     1      -0.980   0.320  -0.283  1.00  0.00     0.136 A 
ATOM      8  C   UNL     1       0.424   0.114  -0.083  1.00  0.00    -0.039 C 
ATOM      9  N   UNL     1      -1.350   1.615  -0.140  1.00  0.00    -0.242 NA
ENDROOT
BRANCH   6  10
ATOM     10  N   UNL     1      -1.422  -2.084  -0.646  1.00  0.00    -0.396 N 
ATOM     11  H   UNL     1      -1.996  -2.686  -1.227  1.00  0.00     0.156 HD
ATOM     12  H   UNL     1      -0.432  -2.188  -0.853  1.00  0.00     0.156 HD
ENDBRANCH   6  10
BRANCH   8  13
ATOM     13  C   UNL     1       1.601  -0.059   0.084  1.00  0.00    -0.060 C 
ATOM     14  C   UNL     1       3.002  -0.262   0.282  1.00  0.00     0.028 A 
ATOM     15  C   UNL     1       3.923   0.633  -0.273  1.00  0.00     0.017 A 
ATOM     16  C   UNL     1       3.452  -1.354   1.025  1.00  0.00     0.056 A 
ATOM     17  C   UNL     1       5.294   0.437  -0.086  1.00  0.00     0.004 A 
ATOM     18  C   UNL     1       4.818  -1.539   1.204  1.00  0.00     0.124 A 
ATOM     19  C   UNL     1       5.743  -0.655   0.656  1.00  0.00     0.039 A 
ATOM     20  F   UNL     1       5.253  -2.587   1.916  1.00  0.00    -0.207 F 
ENDBRANCH   8  13
TORSDOF 2
