REMARK SMILES COc1cc2cc(c1Cl)N(C)C(=O)C[C@H](OC(=O)C(C)C)[C@]1(C)O[C@H]1[C@H](C)[C@@H]1C[C@@](O)(NC(=O)O1)[C@H](OC)/C=C/C=C(\C)C2
REMARK SMILES IDX 14 1 12 2 13 3 10 4 11 5 7 6 3 7 4 8 8 9 5 10 6 11 9 12 2 13
REMARK SMILES IDX 1 14 44 15 42 16 41 17 43 18 40 19 39 20 15 22 16 23 17 24
REMARK SMILES IDX 18 25 19 26 20 27 21 28 22 29 24 30 25 31 23 32 26 33 27 34
REMARK SMILES IDX 28 35 29 36 35 37 30 38 33 39 32 40 34 41 31 43 36 45 37 47
REMARK SMILES IDX 38 48
REMARK H PARENT 32 42 31 44
REMARK Flexibility Score:  142.900
ROOT
ATOM      1  C   UNL     1       2.620   1.783  -0.021  1.00  0.00     0.149 C 
ENDROOT
BRANCH   1   2
ATOM      2  C   UNL     1       1.113   1.989   0.093  1.00  0.00     0.230 C 
ATOM      3  O   UNL     1       0.388   1.077   0.496  1.00  0.00    -0.274 OA
BRANCH   2   4
ATOM      4  N   UNL     1       0.628   3.256  -0.285  1.00  0.00    -0.314 N 
ATOM      5  C   UNL     1       1.523   4.317  -0.738  1.00  0.00     0.153 C 
BRANCH   4   6
ATOM      6  C   UNL     1      -0.788   3.542  -0.227  1.00  0.00     0.066 A 
ATOM      7  C   UNL     1      -2.889   4.485  -1.100  1.00  0.00     0.139 A 
ATOM      8  C   UNL     1      -3.569   4.027   0.033  1.00  0.00     0.052 A 
ATOM      9  C   UNL     1      -1.502   4.231  -1.236  1.00  0.00     0.106 A 
ATOM     10  C   UNL     1      -2.891   3.323   1.033  1.00  0.00    -0.038 A 
ATOM     11  C   UNL     1      -1.509   3.109   0.901  1.00  0.00     0.032 A 
ATOM     12  Cl  UNL     1      -0.755   4.657  -2.755  1.00  0.00    -0.078 Cl
BRANCH   7  13
ATOM     13  O   UNL     1      -3.495   5.171  -2.125  1.00  0.00    -0.495 OA
ATOM     14  C   UNL     1      -4.909   5.312  -2.090  1.00  0.00     0.278 C 
ENDBRANCH   7  13
BRANCH  10  15
ATOM     15  C   UNL     1      -3.642   2.731   2.210  1.00  0.00     0.066 C 
BRANCH  15  16
ATOM     16  C   UNL     1      -3.938   1.232   2.149  1.00  0.00    -0.069 C 
ATOM     17  C   UNL     1      -3.671   0.473   1.065  1.00  0.00    -0.001 C 
ATOM     18  C   UNL     1      -4.524   0.705   3.434  1.00  0.00     0.040 C 
BRANCH  17  19
ATOM     19  C   UNL     1      -3.821  -0.958   0.906  1.00  0.00    -0.002 C 
ATOM     20  C   UNL     1      -3.387  -1.568  -0.209  1.00  0.00     0.009 CG0
ATOM     21  G   UNL     1      -3.391  -3.053  -0.477  1.00  0.00     0.000 G0
ENDBRANCH  17  19
ENDBRANCH  15  16
ENDBRANCH  10  15
ENDBRANCH   4   6
ENDBRANCH   2   4
ENDBRANCH   1   2
BRANCH   1  22
ATOM     22  C   UNL     1       3.065   0.357   0.341  1.00  0.00     0.220 C 
BRANCH  22  23
ATOM     23  O   UNL     1       4.438   0.485   0.802  1.00  0.00    -0.458 OA
BRANCH  23  24
ATOM     24  C   UNL     1       4.860  -0.434   1.712  1.00  0.00     0.308 C 
ATOM     25  O   UNL     1       4.199  -1.378   2.119  1.00  0.00    -0.252 OA
BRANCH  24  26
ATOM     26  C   UNL     1       6.286  -0.160   2.147  1.00  0.00     0.093 C 
ATOM     27  C   UNL     1       6.423   1.242   2.731  1.00  0.00     0.019 C 
ATOM     28  C   UNL     1       7.250  -0.389   0.989  1.00  0.00     0.019 C 
ENDBRANCH  24  26
ENDBRANCH  23  24
ENDBRANCH  22  23
BRANCH  22  29
ATOM     29  C   UNL     1       2.983  -0.622  -0.833  1.00  0.00     0.130 C 
ATOM     30  O   UNL     1       1.969  -0.328  -1.810  1.00  0.00    -0.362 OA
ATOM     31  C   UNL     1       1.689  -1.436  -0.948  1.00  0.00     0.161 C 
ATOM     32  C   UNL     1       4.261  -1.086  -1.465  1.00  0.00     0.049 C 
BRANCH  31  33
ATOM     33  C   UNL     1       1.600  -2.805  -1.600  1.00  0.00     0.059 C 
ATOM     34  C   UNL     1       1.437  -2.738  -3.122  1.00  0.00     0.014 C 
BRANCH  33  35
ATOM     35  C   UNL     1       0.454  -3.653  -0.965  1.00  0.00     0.189 C 
ATOM     36  C   UNL     1      -0.941  -3.109  -1.263  1.00  0.00     0.107 C 
ATOM     37  O   UNL     1       0.744  -3.778   0.450  1.00  0.00    -0.446 OA
ATOM     38  C   UNL     1      -1.961  -3.708  -0.305  1.00  0.00     0.174 C 
ATOM     39  C   UNL     1      -0.186  -3.687   1.427  1.00  0.00     0.409 C 
ATOM     40  N   UNL     1      -1.482  -3.597   1.041  1.00  0.00    -0.290 N 
ATOM     41  O   UNL     1       0.106  -3.723   2.615  1.00  0.00    -0.224 OA
ATOM     42  H   UNL     1      -2.140  -3.574   1.808  1.00  0.00     0.170 HD
BRANCH  38  43
ATOM     43  O   UNL     1      -2.066  -5.109  -0.536  1.00  0.00    -0.368 OA
ATOM     44  H   UNL     1      -1.435  -5.526   0.073  1.00  0.00     0.213 HD
ENDBRANCH  38  43
BRANCH  38  45
ATOM     45  C   UNL     1      -3.391  -3.053  -0.477  1.00  0.00     0.193 CG0
ATOM     46  G   UNL     1      -3.387  -1.568  -0.209  1.00  0.00     0.000 G0
BRANCH  45  47
ATOM     47  O   UNL     1      -3.870  -3.184  -1.827  1.00  0.00    -0.372 OA
ATOM     48  C   UNL     1      -4.740  -4.294  -2.003  1.00  0.00     0.196 C 
ENDBRANCH  45  47
ENDBRANCH  38  45
ENDBRANCH  33  35
ENDBRANCH  31  33
ENDBRANCH  22  29
ENDBRANCH   1  22
TORSDOF 6
