REMARK SMILES O=[P@]1(N(CCCl)CCCl)NCCCO1
REMARK SMILES IDX 3 1 2 2 1 3 10 4 14 5 11 6 13 7 12 8 4 10 5 11 6 12 7 13
REMARK SMILES IDX 8 14 9 15
REMARK H PARENT 10 9
ROOT
ATOM      1  N   UNL     1      -1.188  -0.051   0.032  1.00  0.00    -0.217 NA
ENDROOT
BRANCH   1   2
ATOM      2  P   UNL     1       0.342  -0.357   0.513  1.00  0.00     0.343 P 
ATOM      3  O   UNL     1       0.485  -1.216   1.729  1.00  0.00    -0.256 OA
ATOM      4  N   UNL     1       1.100  -0.924  -0.820  1.00  0.00    -0.232 NA
ATOM      5  O   UNL     1       1.051   1.075   0.737  1.00  0.00    -0.306 OA
ATOM      6  C   UNL     1       2.396  -0.348  -1.150  1.00  0.00     0.094 C 
ATOM      7  C   UNL     1       2.455   1.058   0.953  1.00  0.00     0.172 C 
ATOM      8  C   UNL     1       3.170  -0.008   0.120  1.00  0.00     0.045 C 
ATOM      9  H   UNL     1       0.514  -0.940  -1.643  1.00  0.00     0.133 HD
ENDBRANCH   1   2
BRANCH   1  10
ATOM     10  C   UNL     1      -1.505   1.205  -0.655  1.00  0.00     0.111 C 
BRANCH  10  11
ATOM     11  C   UNL     1      -1.815   2.351   0.315  1.00  0.00     0.125 C 
ATOM     12  Cl  UNL     1      -3.356   2.086   1.172  1.00  0.00    -0.125 Cl
ENDBRANCH  10  11
ENDBRANCH   1  10
BRANCH   1  13
ATOM     13  C   UNL     1      -2.094  -1.137  -0.357  1.00  0.00     0.111 C 
BRANCH  13  14
ATOM     14  C   UNL     1      -2.078  -2.348   0.584  1.00  0.00     0.125 C 
ATOM     15  Cl  UNL     1      -3.305  -3.538   0.068  1.00  0.00    -0.125 Cl
ENDBRANCH  13  14
ENDBRANCH   1  13
TORSDOF 5
