REMARK SMILES NC(=O)CCCC[C@H]1CCSS1
REMARK SMILES IDX 5 1 4 2 2 3 1 4 3 5 6 8 7 9 8 10 9 11 12 12 10 13 11 14
REMARK H PARENT 1 6 1 7
ROOT
ATOM      1  C   UNL     1      -1.627  -1.274  -1.149  1.00  0.00     0.010 C 
ENDROOT
BRANCH   1   2
ATOM      2  C   UNL     1      -2.556  -0.857  -0.010  1.00  0.00     0.100 C 
BRANCH   2   3
ATOM      3  C   UNL     1      -3.186   0.508  -0.198  1.00  0.00     0.217 C 
ATOM      4  N   UNL     1      -3.917   0.934   0.873  1.00  0.00    -0.370 N 
ATOM      5  O   UNL     1      -3.083   1.201  -1.201  1.00  0.00    -0.275 OA
ATOM      6  H   UNL     1      -4.223   0.298   1.597  1.00  0.00     0.159 HD
ATOM      7  H   UNL     1      -4.433   1.797   0.752  1.00  0.00     0.159 HD
ENDBRANCH   2   3
ENDBRANCH   1   2
BRANCH   1   8
ATOM      8  C   UNL     1      -0.343  -0.446  -1.298  1.00  0.00     0.002 C 
BRANCH   8   9
ATOM      9  C   UNL     1       0.547  -0.456  -0.050  1.00  0.00     0.015 C 
BRANCH   9  10
ATOM     10  C   UNL     1       1.879   0.281  -0.251  1.00  0.00     0.059 C 
ATOM     11  C   UNL     1       2.630   0.452   1.075  1.00  0.00     0.027 C 
ATOM     12  S   UNL     1       3.019  -0.627  -1.348  1.00  0.00    -0.091 SA
ATOM     13  C   UNL     1       4.024   1.010   0.814  1.00  0.00     0.083 C 
ATOM     14  S   UNL     1       4.769  -0.025  -0.468  1.00  0.00    -0.094 SA
ENDBRANCH   9  10
ENDBRANCH   8   9
ENDBRANCH   1   8
TORSDOF 5
