REMARK SMILES O=C1C[C@@H](c2ccc(O)cc2)Oc2cc(O)ccc21
REMARK SMILES IDX 1 1 2 2 3 3 4 4 12 5 13 6 14 7 15 8 17 9 18 10 19 11 5 12
REMARK SMILES IDX 6 13 11 14 7 15 10 16 8 17 9 18 16 20
REMARK H PARENT 9 19 16 21
ROOT
ATOM      1  O   UNL     1       1.780  -2.775  -1.671  1.00  0.00    -0.294 OA
ATOM      2  C   UNL     1       1.376  -1.857  -0.966  1.00  0.00     0.170 C 
ATOM      3  C   UNL     1      -0.086  -1.569  -0.773  1.00  0.00     0.131 C 
ATOM      4  C   UNL     1      -0.247  -0.069  -0.565  1.00  0.00     0.211 C 
ATOM      5  O   UNL     1       0.476   0.372   0.597  1.00  0.00    -0.484 OA
ATOM      6  C   UNL     1       1.806   0.047   0.553  1.00  0.00     0.134 A 
ATOM      7  C   UNL     1       2.663   0.818   1.338  1.00  0.00     0.093 A 
ATOM      8  C   UNL     1       4.027   0.540   1.330  1.00  0.00     0.119 A 
ATOM      9  C   UNL     1       4.545  -0.497   0.559  1.00  0.00     0.047 A 
ATOM     10  C   UNL     1       3.686  -1.282  -0.212  1.00  0.00     0.019 A 
ATOM     11  C   UNL     1       2.315  -1.010  -0.205  1.00  0.00     0.060 A 
ENDROOT
BRANCH   4  12
ATOM     12  C   UNL     1      -1.712   0.292  -0.394  1.00  0.00    -0.007 A 
ATOM     13  C   UNL     1      -2.368   0.112   0.834  1.00  0.00     0.011 A 
ATOM     14  C   UNL     1      -2.447   0.784  -1.486  1.00  0.00     0.011 A 
ATOM     15  C   UNL     1      -3.722   0.426   0.969  1.00  0.00     0.046 A 
ATOM     16  C   UNL     1      -3.802   1.098  -1.351  1.00  0.00     0.046 A 
ATOM     17  C   UNL     1      -4.427   0.916  -0.122  1.00  0.00     0.115 A 
BRANCH  17  18
ATOM     18  O   UNL     1      -5.747   1.209   0.054  1.00  0.00    -0.508 OA
ATOM     19  H   UNL     1      -6.106   1.540  -0.785  1.00  0.00     0.293 HD
ENDBRANCH  17  18
ENDBRANCH   4  12
BRANCH   8  20
ATOM     20  O   UNL     1       4.905   1.272   2.074  1.00  0.00    -0.508 OA
ATOM     21  H   UNL     1       4.412   1.949   2.567  1.00  0.00     0.293 HD
ENDBRANCH   8  20
TORSDOF 3
