REMARK SMILES Brc1c(Br)c(Br)c2n[nH]nc2c1Br
REMARK SMILES IDX 1 1 2 2 3 3 4 4 5 5 6 6 7 7 8 8 9 9 10 10 11 11 12 12 13 13
REMARK H PARENT 9 14
ROOT
ATOM      1  Br  UNL     1       3.142  -2.010  -0.343  1.00  0.00    -0.048 Br
ATOM      2  C   UNL     1       1.585  -0.890  -0.158  1.00  0.00     0.049 A 
ATOM      3  C   UNL     1       1.745   0.533   0.007  1.00  0.00     0.049 A 
ATOM      4  Br  UNL     1       3.513   1.297   0.040  1.00  0.00    -0.048 Br
ATOM      5  C   UNL     1       0.641   1.415   0.148  1.00  0.00     0.063 A 
ATOM      6  Br  UNL     1       0.769   3.292   0.368  1.00  0.00    -0.047 Br
ATOM      7  C   UNL     1      -0.630   0.800   0.116  1.00  0.00     0.129 A 
ATOM      8  N   UNL     1      -1.857   1.345   0.221  1.00  0.00    -0.155 NA
ATOM      9  N   UNL     1      -2.661   0.285   0.121  1.00  0.00    -0.197 N 
ATOM     10  N   UNL     1      -2.112  -0.920  -0.041  1.00  0.00    -0.155 NA
ATOM     11  C   UNL     1      -0.793  -0.648  -0.051  1.00  0.00     0.129 A 
ATOM     12  C   UNL     1       0.312  -1.517  -0.191  1.00  0.00     0.063 A 
ATOM     13  Br  UNL     1       0.019  -3.377  -0.404  1.00  0.00    -0.047 Br
ATOM     14  H   UNL     1      -3.672   0.393   0.167  1.00  0.00     0.214 HD
ENDROOT
TORSDOF 0
