REMARK SMILES CCCCCCCCCCCCCCCC[N+](C)(C)C
REMARK SMILES IDX 9 1 8 2 7 3 6 4 5 5 4 6 3 7 2 8 1 9 10 10 11 11 12 12 13 13
REMARK SMILES IDX 14 14 15 15 16 16 17 17 18 18 19 19 20 20
REMARK H PARENT
ROOT
ATOM      1  C   UNL     1       1.487  -0.805  -0.722  1.00  0.00     0.000 C 
ENDROOT
BRANCH   1   2
ATOM      2  C   UNL     1       2.686  -1.034  -1.646  1.00  0.00    -0.000 C 
BRANCH   2   3
ATOM      3  C   UNL     1       3.105   0.218  -2.421  1.00  0.00    -0.000 C 
BRANCH   3   4
ATOM      4  C   UNL     1       3.526   1.419  -1.567  1.00  0.00    -0.000 C 
BRANCH   4   5
ATOM      5  C   UNL     1       4.656   1.158  -0.565  1.00  0.00    -0.000 C 
BRANCH   5   6
ATOM      6  C   UNL     1       5.958   0.701  -1.229  1.00  0.00    -0.000 C 
BRANCH   6   7
ATOM      7  C   UNL     1       7.139   0.627  -0.256  1.00  0.00    -0.000 C 
BRANCH   7   8
ATOM      8  C   UNL     1       6.970  -0.447   0.820  1.00  0.00    -0.003 C 
ATOM      9  C   UNL     1       8.214  -0.560   1.689  1.00  0.00     0.004 C 
ENDBRANCH   7   8
ENDBRANCH   6   7
ENDBRANCH   5   6
ENDBRANCH   4   5
ENDBRANCH   3   4
ENDBRANCH   2   3
ENDBRANCH   1   2
BRANCH   1  10
ATOM     10  C   UNL     1       1.045  -2.112  -0.058  1.00  0.00     0.000 C 
BRANCH  10  11
ATOM     11  C   UNL     1      -0.072  -1.924   0.972  1.00  0.00     0.000 C 
BRANCH  11  12
ATOM     12  C   UNL     1      -1.394  -1.454   0.359  1.00  0.00     0.000 C 
BRANCH  12  13
ATOM     13  C   UNL     1      -2.501  -1.394   1.416  1.00  0.00     0.000 C 
BRANCH  13  14
ATOM     14  C   UNL     1      -3.874  -1.020   0.842  1.00  0.00     0.006 C 
BRANCH  14  15
ATOM     15  C   UNL     1      -3.983   0.452   0.445  1.00  0.00     0.061 C 
BRANCH  15  16
ATOM     16  C   UNL     1      -5.194   0.828  -0.417  1.00  0.00     0.263 C 
BRANCH  16  17
ATOM     17  N   UNL     1      -6.580   0.754   0.248  1.00  0.00    -0.331 N 
ATOM     18  C   UNL     1      -7.134  -0.668   0.262  1.00  0.00     0.334 C 
ATOM     19  C   UNL     1      -6.581   1.325   1.659  1.00  0.00     0.334 C 
ATOM     20  C   UNL     1      -7.540   1.602  -0.604  1.00  0.00     0.334 C 
ENDBRANCH  16  17
ENDBRANCH  15  16
ENDBRANCH  14  15
ENDBRANCH  13  14
ENDBRANCH  12  13
ENDBRANCH  11  12
ENDBRANCH  10  11
ENDBRANCH   1  10
TORSDOF 15
