REMARK SMILES NS(=O)(=O)c1cc2c(cc1C(F)(F)F)N[C@@H](Cc1ccccc1)NS2(=O)=O
REMARK SMILES IDX 5 1 6 2 7 3 8 4 9 5 10 6 15 7 16 8 24 9 25 10 26 11 27 12
REMARK SMILES IDX 2 15 3 16 4 17 1 18 11 21 12 22 13 23 14 24 17 25 18 26
REMARK SMILES IDX 19 27 23 28 20 29 22 30 21 31
REMARK H PARENT 15 13 24 14 1 19 1 20
ROOT
ATOM      1  C   UNL     1       3.193   0.537   0.843  1.00  0.00     0.095 A 
ATOM      2  C   UNL     1       2.362   1.592   0.446  1.00  0.00     0.046 A 
ATOM      3  C   UNL     1       1.148   1.310  -0.187  1.00  0.00     0.107 A 
ATOM      4  C   UNL     1       0.715   0.006  -0.414  1.00  0.00     0.056 A 
ATOM      5  C   UNL     1       1.557  -1.034   0.003  1.00  0.00     0.041 A 
ATOM      6  C   UNL     1       2.806  -0.798   0.625  1.00  0.00     0.078 A 
ATOM      7  N   UNL     1      -0.477  -0.325  -1.055  1.00  0.00    -0.368 N 
ATOM      8  C   UNL     1      -1.264   0.712  -1.698  1.00  0.00     0.166 C 
ATOM      9  N   UNL     1      -1.385   1.844  -0.808  1.00  0.00    -0.189 NA
ATOM     10  S   UNL     1       0.069   2.639  -0.588  1.00  0.00     0.244 S 
ATOM     11  O   UNL     1       0.497   3.183  -1.857  1.00  0.00    -0.207 OA
ATOM     12  O   UNL     1      -0.089   3.455   0.594  1.00  0.00    -0.207 OA
ATOM     13  H   UNL     1      -1.031  -0.994  -0.523  1.00  0.00     0.162 HD
ATOM     14  H   UNL     1      -1.844   1.654   0.080  1.00  0.00     0.143 HD
ENDROOT
BRANCH   1  15
ATOM     15  S   UNL     1       4.716   0.945   1.665  1.00  0.00     0.238 S 
ATOM     16  O   UNL     1       4.935   0.001   2.730  1.00  0.00    -0.207 OA
ATOM     17  O   UNL     1       4.766   2.372   1.878  1.00  0.00    -0.207 OA
BRANCH  15  18
ATOM     18  N   UNL     1       5.838   0.629   0.465  1.00  0.00    -0.225 NA
ATOM     19  H   UNL     1       6.364   1.475   0.238  1.00  0.00     0.137 HD
ATOM     20  H   UNL     1       6.425  -0.167   0.726  1.00  0.00     0.137 HD
ENDBRANCH  15  18
ENDBRANCH   1  15
BRANCH   6  21
ATOM     21  C   UNL     1       3.636  -1.992   1.044  1.00  0.00     0.417 C 
ATOM     22  F   UNL     1       3.505  -2.284   2.364  1.00  0.00    -0.166 F 
ATOM     23  F   UNL     1       4.966  -1.871   0.787  1.00  0.00    -0.166 F 
ATOM     24  F   UNL     1       3.262  -3.132   0.390  1.00  0.00    -0.166 F 
ENDBRANCH   6  21
BRANCH   8  25
ATOM     25  C   UNL     1      -2.656   0.194  -2.132  1.00  0.00     0.077 C 
BRANCH  25  26
ATOM     26  C   UNL     1      -3.543  -0.328  -1.021  1.00  0.00    -0.045 A 
ATOM     27  C   UNL     1      -3.584  -1.699  -0.726  1.00  0.00     0.004 A 
ATOM     28  C   UNL     1      -4.336   0.551  -0.269  1.00  0.00     0.004 A 
ATOM     29  C   UNL     1      -4.384  -2.175   0.314  1.00  0.00     0.000 A 
ATOM     30  C   UNL     1      -5.135   0.073   0.770  1.00  0.00     0.000 A 
ATOM     31  C   UNL     1      -5.156  -1.289   1.063  1.00  0.00     0.000 A 
ENDBRANCH  25  26
ENDBRANCH   8  25
TORSDOF 5
