REMARK SMILES COc1ccc2c(c1)C=C1Cn3c-2c(C2CCCCC2)c2ccc(cc23)C(=O)NS(=O)(=O)N(C)CCOCCN(C)C1=O
REMARK SMILES IDX 27 1 28 2 29 3 24 5 13 6 12 7 14 8 26 9 21 10 25 11 22 12
REMARK SMILES IDX 23 13 6 14 3 15 4 16 8 17 5 18 7 19 2 20 1 21 9 22 10 23
REMARK SMILES IDX 42 25 43 26 40 27 41 28 39 29 11 31 15 33 16 34 20 35 17 36
REMARK SMILES IDX 19 37 18 38 30 39 31 40 32 41 33 42 34 43 35 44 36 45 37 46
REMARK SMILES IDX 38 47
REMARK H PARENT 29 4
REMARK Flexibility Score:   97.800
ROOT
ATOM      1  C   UNL     1       3.245  -2.957  -1.953  1.00  0.00     0.265 C 
ATOM      2  O   UNL     1       3.761  -2.586  -2.994  1.00  0.00    -0.268 OA
ATOM      3  N   UNL     1       3.920  -3.519  -0.867  1.00  0.00    -0.236 N 
ATOM      4  H   UNL     1       3.430  -3.694   0.004  1.00  0.00     0.184 HD
ENDROOT
BRANCH   1   5
ATOM      5  C   UNL     1       1.819  -2.682  -1.659  1.00  0.00     0.042 A 
ATOM      6  C   UNL     1      -1.805   0.093  -0.832  1.00  0.00     0.054 A 
ATOM      7  N   UNL     1      -0.554   0.195  -1.425  1.00  0.00    -0.335 N 
ATOM      8  C   UNL     1      -1.912  -1.211  -0.338  1.00  0.00    -0.011 A 
ATOM      9  C   UNL     1       0.099  -1.016  -1.429  1.00  0.00     0.050 A 
ATOM     10  C   UNL     1      -0.724  -1.916  -0.757  1.00  0.00     0.004 A 
ATOM     11  C   UNL     1       1.366  -1.380  -1.913  1.00  0.00     0.040 A 
ATOM     12  C   UNL     1      -0.266  -3.243  -0.574  1.00  0.00     0.011 A 
ATOM     13  C   UNL     1       1.010  -3.613  -1.011  1.00  0.00     0.014 A 
BRANCH   6  14
ATOM     14  C   UNL     1      -2.698   1.267  -0.727  1.00  0.00     0.006 A 
ATOM     15  C   UNL     1      -4.501   3.434  -0.500  1.00  0.00     0.119 A 
ATOM     16  C   UNL     1      -4.916   2.220  -1.042  1.00  0.00     0.047 A 
ATOM     17  C   UNL     1      -3.171   3.583  -0.107  1.00  0.00     0.055 A 
ATOM     18  C   UNL     1      -4.024   1.153  -1.163  1.00  0.00     0.015 A 
ATOM     19  C   UNL     1      -2.254   2.522  -0.240  1.00  0.00    -0.012 A 
BRANCH  15  20
ATOM     20  O   UNL     1      -5.476   4.390  -0.429  1.00  0.00    -0.497 OA
ATOM     21  C   UNL     1      -5.111   5.647   0.127  1.00  0.00     0.278 C 
ENDBRANCH  15  20
BRANCH  19  22
ATOM     22  C   UNL     1      -0.850   2.814   0.116  1.00  0.00     0.020 C 
ATOM     23  C   UNL     1       0.185   2.336  -0.601  1.00  0.00     0.037 CG0
ATOM     24  G   UNL     1       0.040   1.472  -1.817  1.00  0.00     0.000 G0
BRANCH  23  25
ATOM     25  C   UNL     1       1.569   2.732  -0.253  1.00  0.00     0.251 C 
ATOM     26  O   UNL     1       2.233   3.333  -1.097  1.00  0.00    -0.269 OA
BRANCH  25  27
ATOM     27  N   UNL     1       2.059   2.404   1.000  1.00  0.00    -0.340 N 
ATOM     28  C   UNL     1       1.489   1.393   1.884  1.00  0.00     0.147 C 
BRANCH  27  29
ATOM     29  C   UNL     1       3.368   2.952   1.384  1.00  0.00     0.148 CG1
ATOM     30  G   UNL     1       4.550   2.140   0.839  1.00  0.00     0.000 G1
ENDBRANCH  27  29
ENDBRANCH  25  27
ENDBRANCH  23  25
ENDBRANCH  19  22
ENDBRANCH   6  14
BRANCH   7  31
ATOM     31  C   UNL     1       0.040   1.472  -1.817  1.00  0.00     0.164 CG0
ATOM     32  G   UNL     1       0.185   2.336  -0.601  1.00  0.00     0.000 G0
ENDBRANCH   7  31
BRANCH   8  33
ATOM     33  C   UNL     1      -2.980  -1.852   0.534  1.00  0.00     0.022 C 
ATOM     34  C   UNL     1      -3.530  -0.951   1.651  1.00  0.00     0.008 C 
ATOM     35  C   UNL     1      -4.107  -2.502  -0.281  1.00  0.00     0.008 C 
ATOM     36  C   UNL     1      -4.510  -1.712   2.544  1.00  0.00     0.001 C 
ATOM     37  C   UNL     1      -5.097  -3.240   0.620  1.00  0.00     0.001 C 
ATOM     38  C   UNL     1      -5.637  -2.340   1.728  1.00  0.00     0.000 C 
ENDBRANCH   8  33
ENDBRANCH   1   5
BRANCH   3  39
ATOM     39  S   UNL     1       5.545  -3.452  -0.594  1.00  0.00     0.303 S 
ATOM     40  O   UNL     1       6.267  -4.045  -1.689  1.00  0.00    -0.189 OA
ATOM     41  O   UNL     1       5.692  -3.951   0.756  1.00  0.00    -0.189 OA
BRANCH  39  42
ATOM     42  N   UNL     1       5.821  -1.788  -0.528  1.00  0.00    -0.185 NA
ATOM     43  C   UNL     1       6.095  -1.096  -1.806  1.00  0.00     0.126 C 
BRANCH  42  44
ATOM     44  C   UNL     1       4.969  -1.006   0.404  1.00  0.00     0.132 C 
BRANCH  44  45
ATOM     45  C   UNL     1       5.744   0.100   1.121  1.00  0.00     0.177 C 
BRANCH  45  46
ATOM     46  O   UNL     1       4.817   1.027   1.703  1.00  0.00    -0.378 OA
BRANCH  46  47
ATOM     47  C   UNL     1       4.550   2.140   0.839  1.00  0.00     0.181 CG1
ATOM     48  G   UNL     1       3.368   2.952   1.384  1.00  0.00     0.000 G1
ENDBRANCH  46  47
ENDBRANCH  45  46
ENDBRANCH  44  45
ENDBRANCH  42  44
ENDBRANCH  39  42
ENDBRANCH   3  39
TORSDOF 2
