REMARK SMILES S=C(S)OC1CC2CC1C1CCCC21
REMARK SMILES IDX 1 1 2 2 3 3 4 5 5 6 6 7 9 8 7 9 8 10 10 11 14 12 11 13 13 14
REMARK SMILES IDX 12 15
REMARK H PARENT 3 4
ROOT
ATOM      1  S   UNL     1       3.663  -2.967   0.662  1.00  0.00    -0.032 S 
ATOM      2  C   UNL     1       3.217  -1.364   0.523  1.00  0.00     0.217 C 
ENDROOT
BRANCH   2   3
ATOM      3  S   UNL     1       3.997  -0.112   1.462  1.00  0.00    -0.094 SA
ATOM      4  H   UNL     1       4.834  -0.941   2.100  1.00  0.00     0.112 HD
ENDBRANCH   2   3
BRANCH   2   5
ATOM      5  O   UNL     1       2.221  -1.128  -0.371  1.00  0.00    -0.475 OA
BRANCH   5   6
ATOM      6  C   UNL     1       1.686   0.187  -0.582  1.00  0.00     0.178 C 
ATOM      7  C   UNL     1       0.846   0.200  -1.880  1.00  0.00     0.049 C 
ATOM      8  C   UNL     1       0.648   0.616   0.487  1.00  0.00     0.034 C 
ATOM      9  C   UNL     1      -0.537   0.687  -1.393  1.00  0.00    -0.004 C 
ATOM     10  C   UNL     1      -0.125   1.673  -0.300  1.00  0.00     0.011 C 
ATOM     11  C   UNL     1      -0.391  -0.516   0.696  1.00  0.00    -0.001 C 
ATOM     12  C   UNL     1      -1.199  -0.478  -0.618  1.00  0.00    -0.004 C 
ATOM     13  C   UNL     1      -1.396  -0.292   1.829  1.00  0.00     0.004 C 
ATOM     14  C   UNL     1      -2.661  -0.271  -0.221  1.00  0.00     0.004 C 
ATOM     15  C   UNL     1      -2.655   0.278   1.196  1.00  0.00     0.001 C 
ENDBRANCH   5   6
ENDBRANCH   2   5
TORSDOF 3
