REMARK SMILES O=C(O)C(F)(F)C(F)(F)C(F)(F)C(F)(F)C(F)(F)C(F)(F)C(F)(F)F
REMARK SMILES IDX 10 1 11 2 12 3 7 4 8 5 9 6 4 7 5 8 6 9 2 10 1 11 3 12 13 14
REMARK SMILES IDX 14 15 15 16 16 17 17 18 18 19 19 20 20 21 21 22 22 23 23 24
REMARK SMILES IDX 24 25 25 26
REMARK H PARENT 3 13
ROOT
ATOM      1  C   UNL     1       0.561  -0.591   1.061  1.00  0.00     0.385 C 
ATOM      2  F   UNL     1      -0.123  -1.450   1.880  1.00  0.00    -0.192 F 
ATOM      3  F   UNL     1       0.557   0.601   1.721  1.00  0.00    -0.192 F 
ENDROOT
BRANCH   1   4
ATOM      4  C   UNL     1       1.986  -1.111   0.938  1.00  0.00     0.389 C 
ATOM      5  F   UNL     1       1.951  -2.367   0.392  1.00  0.00    -0.192 F 
ATOM      6  F   UNL     1       2.483  -1.297   2.203  1.00  0.00    -0.192 F 
BRANCH   4   7
ATOM      7  C   UNL     1       2.963  -0.256   0.151  1.00  0.00     0.410 C 
ATOM      8  F   UNL     1       2.583  -0.188  -1.158  1.00  0.00    -0.186 F 
ATOM      9  F   UNL     1       4.181  -0.884   0.120  1.00  0.00    -0.186 F 
BRANCH   7  10
ATOM     10  C   UNL     1       3.089   1.114   0.798  1.00  0.00     0.381 C 
ATOM     11  O   UNL     1       3.783   1.411   1.758  1.00  0.00    -0.245 OA
BRANCH  10  12
ATOM     12  O   UNL     1       2.307   2.061   0.232  1.00  0.00    -0.477 OA
ATOM     13  H   UNL     1       2.508   2.887   0.725  1.00  0.00     0.297 HD
ENDBRANCH  10  12
ENDBRANCH   7  10
ENDBRANCH   4   7
ENDBRANCH   1   4
BRANCH   1  14
ATOM     14  C   UNL     1      -0.190  -0.466  -0.255  1.00  0.00     0.385 C 
ATOM     15  F   UNL     1      -0.090  -1.624  -0.958  1.00  0.00    -0.192 F 
ATOM     16  F   UNL     1       0.386   0.494  -1.023  1.00  0.00    -0.192 F 
BRANCH  14  17
ATOM     17  C   UNL     1      -1.652  -0.118  -0.025  1.00  0.00     0.387 C 
ATOM     18  F   UNL     1      -1.740   1.031   0.700  1.00  0.00    -0.192 F 
ATOM     19  F   UNL     1      -2.250  -1.081   0.726  1.00  0.00    -0.192 F 
BRANCH  17  20
ATOM     20  C   UNL     1      -2.384   0.041  -1.338  1.00  0.00     0.409 C 
ATOM     21  F   UNL     1      -1.803   1.016  -2.093  1.00  0.00    -0.189 F 
ATOM     22  F   UNL     1      -2.296  -1.103  -2.074  1.00  0.00    -0.189 F 
BRANCH  20  23
ATOM     23  C   UNL     1      -3.837   0.383  -1.077  1.00  0.00     0.460 C 
ATOM     24  F   UNL     1      -4.522   0.536  -2.238  1.00  0.00    -0.165 F 
ATOM     25  F   UNL     1      -4.476  -0.580  -0.372  1.00  0.00    -0.165 F 
ATOM     26  F   UNL     1      -3.976   1.540  -0.389  1.00  0.00    -0.165 F 
ENDBRANCH  20  23
ENDBRANCH  17  20
ENDBRANCH  14  17
ENDBRANCH   1  14
TORSDOF 8
