REMARK SMILES CC/C=C\C/C=C\C/C=C\C/C=C\C/C=C\CCCC(=O)OCC
REMARK SMILES IDX 12 1 13 2 11 3 10 4 9 5 8 6 7 7 6 8 5 9 4 10 3 11 2 12 1 13
REMARK SMILES IDX 14 14 15 15 16 16 17 17 18 18 19 19 20 20 21 21 22 22 23 23
REMARK SMILES IDX 24 24
REMARK H PARENT
ROOT
ATOM      1  C   UNL     1      -1.219  -4.553   1.475  1.00  0.00    -0.027 C 
ATOM      2  C   UNL     1      -0.628  -4.655   0.273  1.00  0.00    -0.027 C 
ENDROOT
BRANCH   1   3
ATOM      3  C   UNL     1      -1.357  -3.330   2.336  1.00  0.00     0.054 C 
BRANCH   3   4
ATOM      4  C   UNL     1      -0.645  -3.516   3.646  1.00  0.00    -0.027 C 
ATOM      5  C   UNL     1       0.341  -2.765   4.167  1.00  0.00    -0.027 C 
BRANCH   5   6
ATOM      6  C   UNL     1       1.000  -1.559   3.563  1.00  0.00     0.054 C 
BRANCH   6   7
ATOM      7  C   UNL     1       0.624  -0.315   4.318  1.00  0.00    -0.027 C 
ATOM      8  C   UNL     1      -0.080   0.740   3.876  1.00  0.00    -0.027 C 
BRANCH   8   9
ATOM      9  C   UNL     1      -0.681   0.943   2.515  1.00  0.00     0.054 C 
BRANCH   9  10
ATOM     10  C   UNL     1      -0.056   2.126   1.832  1.00  0.00    -0.027 C 
ATOM     11  C   UNL     1      -0.663   3.239   1.389  1.00  0.00    -0.031 C 
BRANCH  11  12
ATOM     12  C   UNL     1      -2.120   3.589   1.488  1.00  0.00     0.023 C 
ATOM     13  C   UNL     1      -2.804   3.489   0.134  1.00  0.00     0.008 C 
ENDBRANCH  11  12
ENDBRANCH   9  10
ENDBRANCH   8   9
ENDBRANCH   6   7
ENDBRANCH   5   6
ENDBRANCH   3   4
ENDBRANCH   1   3
BRANCH   2  14
ATOM     14  C   UNL     1       0.078  -3.580  -0.505  1.00  0.00     0.054 C 
BRANCH  14  15
ATOM     15  C   UNL     1      -0.734  -3.165  -1.699  1.00  0.00    -0.027 C 
ATOM     16  C   UNL     1      -1.053  -1.922  -2.097  1.00  0.00    -0.031 C 
BRANCH  16  17
ATOM     17  C   UNL     1      -0.660  -0.619  -1.464  1.00  0.00     0.027 C 
BRANCH  17  18
ATOM     18  C   UNL     1       0.165   0.224  -2.438  1.00  0.00     0.016 C 
BRANCH  18  19
ATOM     19  C   UNL     1       0.558   1.559  -1.820  1.00  0.00     0.123 C 
BRANCH  19  20
ATOM     20  C   UNL     1       1.320   2.402  -2.807  1.00  0.00     0.305 C 
ATOM     21  O   UNL     1       0.826   3.317  -3.452  1.00  0.00    -0.252 OA
BRANCH  20  22
ATOM     22  O   UNL     1       2.614   1.986  -2.884  1.00  0.00    -0.466 OA
BRANCH  22  23
ATOM     23  C   UNL     1       3.446   2.702  -3.808  1.00  0.00     0.229 C 
ATOM     24  C   UNL     1       3.324   2.100  -5.196  1.00  0.00     0.049 C 
ENDBRANCH  22  23
ENDBRANCH  20  22
ENDBRANCH  19  20
ENDBRANCH  18  19
ENDBRANCH  17  18
ENDBRANCH  16  17
ENDBRANCH  14  15
ENDBRANCH   2  14
TORSDOF 15
