REMARK SMILES CCC(CC)[C@H](NC(C)=O)[C@@H]1[C@H](O)[C@@H](C(=O)O)C[C@H]1NC(=N)N
REMARK SMILES IDX 11 1 12 2 14 3 18 4 19 5 6 6 3 7 2 8 1 9 4 10 5 11 7 12 8 13
REMARK SMILES IDX 10 14 9 16 13 17 20 19 21 20 22 21 23 22 15 27 16 28 17 29
REMARK H PARENT 7 15 13 18 20 23 22 24 23 25 23 26 17 30
ROOT
ATOM      1  C   UNL     1       0.486   0.689  -0.542  1.00  0.00     0.064 C 
ATOM      2  C   UNL     1       0.955   1.431  -1.810  1.00  0.00     0.136 C 
ATOM      3  C   UNL     1       2.459   1.583  -1.590  1.00  0.00     0.130 C 
ATOM      4  C   UNL     1       2.866   0.226  -1.013  1.00  0.00     0.043 C 
ATOM      5  C   UNL     1       1.663  -0.243  -0.176  1.00  0.00     0.090 C 
ENDROOT
BRANCH   1   6
ATOM      6  C   UNL     1      -0.908   0.006  -0.569  1.00  0.00     0.092 C 
BRANCH   6   7
ATOM      7  C   UNL     1      -1.463  -0.385   0.850  1.00  0.00     0.011 C 
BRANCH   7   8
ATOM      8  C   UNL     1      -1.454   0.775   1.877  1.00  0.00     0.002 C 
ATOM      9  C   UNL     1      -2.282   1.990   1.483  1.00  0.00     0.004 C 
ENDBRANCH   7   8
BRANCH   7  10
ATOM     10  C   UNL     1      -2.877  -1.020   0.715  1.00  0.00     0.002 C 
ATOM     11  C   UNL     1      -3.491  -1.484   2.030  1.00  0.00     0.004 C 
ENDBRANCH   7  10
ENDBRANCH   6   7
BRANCH   6  12
ATOM     12  N   UNL     1      -0.925  -1.188  -1.421  1.00  0.00    -0.353 N 
ATOM     13  C   UNL     1      -1.433  -1.204  -2.696  1.00  0.00     0.217 C 
ATOM     14  O   UNL     1      -1.834  -0.193  -3.268  1.00  0.00    -0.275 OA
ATOM     15  H   UNL     1      -0.529  -2.042  -1.044  1.00  0.00     0.163 HD
ATOM     16  C   UNL     1      -1.401  -2.551  -3.364  1.00  0.00     0.114 C 
ENDBRANCH   6  12
ENDBRANCH   1   6
BRANCH   2  17
ATOM     17  O   UNL     1       0.771   0.702  -3.013  1.00  0.00    -0.392 OA
ATOM     18  H   UNL     1      -0.186   0.726  -3.232  1.00  0.00     0.210 HD
ENDBRANCH   2  17
BRANCH   5  19
ATOM     19  N   UNL     1       1.966  -0.104   1.245  1.00  0.00    -0.354 N 
ATOM     20  C   UNL     1       2.348  -1.157   2.002  1.00  0.00     0.185 C 
ATOM     21  N   UNL     1       2.267  -2.386   1.649  1.00  0.00    -0.270 NA
ATOM     22  N   UNL     1       2.807  -0.762   3.205  1.00  0.00    -0.370 N 
ATOM     23  H   UNL     1       2.460   0.763   1.461  1.00  0.00     0.163 HD
ATOM     24  H   UNL     1       2.640  -2.978   2.392  1.00  0.00     0.191 HD
ATOM     25  H   UNL     1       2.854  -1.490   3.905  1.00  0.00     0.159 HD
ATOM     26  H   UNL     1       2.332   0.058   3.562  1.00  0.00     0.159 HD
ENDBRANCH   5  19
BRANCH   3  27
ATOM     27  C   UNL     1       2.756   2.710  -0.633  1.00  0.00     0.309 C 
ATOM     28  O   UNL     1       2.967   2.614   0.566  1.00  0.00    -0.252 OA
BRANCH  27  29
ATOM     29  O   UNL     1       2.745   3.914  -1.233  1.00  0.00    -0.481 OA
ATOM     30  H   UNL     1       2.964   4.555  -0.524  1.00  0.00     0.296 HD
ENDBRANCH  27  29
ENDBRANCH   3  27
TORSDOF 9
