REMARK SMILES CC(=O)Nc1c(I)c(C(=O)O)c(I)c(N(C)C(C)=O)c1I
REMARK SMILES IDX 5 1 6 2 7 3 8 4 12 5 13 6 14 7 20 8 21 9 4 10 2 11 3 12 1 13
REMARK SMILES IDX 9 15 10 16 11 17 15 19 16 20 17 21 19 22 18 23
REMARK H PARENT 4 14 11 18
ROOT
ATOM      1  C   UNL     1      -1.516  -0.238   0.372  1.00  0.00     0.071 A 
ATOM      2  C   UNL     1      -1.652   1.003   1.029  1.00  0.00     0.053 A 
ATOM      3  I   UNL     1      -3.586   1.600   1.736  1.00  0.00    -0.041 I 
ATOM      4  C   UNL     1      -0.540   1.851   1.182  1.00  0.00     0.090 A 
ATOM      5  C   UNL     1       0.727   1.457   0.715  1.00  0.00     0.054 A 
ATOM      6  I   UNL     1       2.389   2.806   0.862  1.00  0.00    -0.041 I 
ATOM      7  C   UNL     1       0.895   0.184   0.124  1.00  0.00     0.073 A 
ATOM      8  C   UNL     1      -0.228  -0.668  -0.024  1.00  0.00     0.063 A 
ATOM      9  I   UNL     1       0.090  -2.738  -0.568  1.00  0.00    -0.040 I 
ENDROOT
BRANCH   1  10
ATOM     10  N   UNL     1      -2.685  -1.018   0.148  1.00  0.00    -0.324 N 
ATOM     11  C   UNL     1      -3.062  -1.384  -1.138  1.00  0.00     0.221 C 
ATOM     12  O   UNL     1      -2.451  -1.101  -2.163  1.00  0.00    -0.275 OA
ATOM     13  C   UNL     1      -4.372  -2.126  -1.176  1.00  0.00     0.114 C 
ATOM     14  H   UNL     1      -3.477  -0.786   0.740  1.00  0.00     0.169 HD
ENDBRANCH   1  10
BRANCH   4  15
ATOM     15  C   UNL     1      -0.710   3.158   1.827  1.00  0.00     0.338 C 
ATOM     16  O   UNL     1      -0.623   3.396   3.014  1.00  0.00    -0.246 OA
BRANCH  15  17
ATOM     17  O   UNL     1      -1.003   4.092   0.906  1.00  0.00    -0.478 OA
ATOM     18  H   UNL     1      -1.094   4.923   1.418  1.00  0.00     0.297 HD
ENDBRANCH  15  17
ENDBRANCH   4  15
BRANCH   7  19
ATOM     19  N   UNL     1       2.189  -0.249  -0.295  1.00  0.00    -0.314 N 
ATOM     20  C   UNL     1       2.480  -0.182  -1.723  1.00  0.00     0.153 C 
BRANCH  19  21
ATOM     21  C   UNL     1       3.073  -0.739   0.664  1.00  0.00     0.223 C 
ATOM     22  O   UNL     1       2.788  -0.840   1.858  1.00  0.00    -0.275 OA
ATOM     23  C   UNL     1       4.431  -1.163   0.163  1.00  0.00     0.115 C 
ENDBRANCH  19  21
ENDBRANCH   7  19
TORSDOF 5
