REMARK SMILES CC(/C=C/C=C(\C)C(=O)O)=C\C=C\C=C(C)\C=C\C=C(/C)C(=O)O
REMARK SMILES IDX 12 1 13 2 11 3 2 4 1 5 3 6 4 7 5 8 6 9 7 10 8 11 9 12 10 13
REMARK SMILES IDX 14 15 15 16 16 17 17 18 18 19 19 20 20 21 21 22 22 23 23 24
REMARK SMILES IDX 24 25
REMARK H PARENT 10 14 24 26
ROOT
ATOM      1  C   UNL     1       0.529  -0.470  -0.007  1.00  0.00     0.000 C 
ATOM      2  C   UNL     1      -0.479   0.410   0.119  1.00  0.00     0.000 C 
ENDROOT
BRANCH   1   3
ATOM      3  C   UNL     1       1.916  -0.106   0.207  1.00  0.00     0.003 C 
ATOM      4  C   UNL     1       3.002  -0.903   0.109  1.00  0.00    -0.051 C 
ATOM      5  C   UNL     1       2.960  -2.367  -0.255  1.00  0.00     0.044 C 
BRANCH   4   6
ATOM      6  C   UNL     1       4.320  -0.312   0.372  1.00  0.00     0.003 C 
ATOM      7  C   UNL     1       5.506  -0.942   0.324  1.00  0.00     0.001 C 
BRANCH   7   8
ATOM      8  C   UNL     1       6.759  -0.265   0.603  1.00  0.00     0.011 C 
ATOM      9  C   UNL     1       7.993  -0.807   0.581  1.00  0.00     0.034 C 
ATOM     10  C   UNL     1       8.342  -2.233   0.262  1.00  0.00     0.052 C 
BRANCH   9  11
ATOM     11  C   UNL     1       9.182   0.031   0.894  1.00  0.00     0.331 C 
ATOM     12  O   UNL     1      10.336  -0.363   0.901  1.00  0.00    -0.247 OA
BRANCH  11  13
ATOM     13  O   UNL     1       8.897   1.311   1.183  1.00  0.00    -0.478 OA
ATOM     14  H   UNL     1       9.776   1.706   1.360  1.00  0.00     0.297 HD
ENDBRANCH  11  13
ENDBRANCH   9  11
ENDBRANCH   7   8
ENDBRANCH   4   6
ENDBRANCH   1   3
BRANCH   2  15
ATOM     15  C   UNL     1      -1.866   0.046  -0.095  1.00  0.00     0.003 C 
ATOM     16  C   UNL     1      -2.952   0.843   0.003  1.00  0.00    -0.051 C 
ATOM     17  C   UNL     1      -2.910   2.307   0.367  1.00  0.00     0.044 C 
BRANCH  16  18
ATOM     18  C   UNL     1      -4.269   0.252  -0.261  1.00  0.00     0.003 C 
ATOM     19  C   UNL     1      -5.456   0.881  -0.213  1.00  0.00     0.001 C 
BRANCH  19  20
ATOM     20  C   UNL     1      -6.707   0.202  -0.492  1.00  0.00     0.011 C 
ATOM     21  C   UNL     1      -7.942   0.743  -0.470  1.00  0.00     0.034 C 
ATOM     22  C   UNL     1      -8.302   2.163  -0.153  1.00  0.00     0.052 C 
BRANCH  21  23
ATOM     23  C   UNL     1      -9.056  -0.186  -0.799  1.00  0.00     0.331 C 
ATOM     24  O   UNL     1      -8.964  -1.367  -1.081  1.00  0.00    -0.247 OA
BRANCH  23  25
ATOM     25  O   UNL     1     -10.255   0.418  -0.758  1.00  0.00    -0.478 OA
ATOM     26  H   UNL     1     -10.880  -0.300  -0.991  1.00  0.00     0.297 HD
ENDBRANCH  23  25
ENDBRANCH  21  23
ENDBRANCH  19  20
ENDBRANCH  16  18
ENDBRANCH   2  15
TORSDOF 10
