REMARK SMILES CC1(C)O[C@@H]2[C@@H](CO[C@@]3(COS(N)(=O)=O)OC(C)(C)O[C@@H]23)O1
REMARK SMILES IDX 11 1 10 2 9 3 2 4 4 5 22 6 5 7 6 8 21 9 7 10 20 11 8 12
REMARK SMILES IDX 17 13 16 14 1 15 3 16 18 17 19 18 12 19 14 20 15 21 13 22
REMARK H PARENT 13 23 13 24
ROOT
ATOM      1  O   UNL     1       2.694   0.879  -0.278  1.00  0.00    -0.252 OA
ENDROOT
BRANCH   1   2
ATOM      2  C   UNL     1       1.456   0.383  -0.784  1.00  0.00     0.253 C 
BRANCH   2   3
ATOM      3  C   UNL     1       0.876  -0.648   0.200  1.00  0.00     0.226 C 
ATOM      4  C   UNL     1      -2.693   1.560  -0.195  1.00  0.00     0.164 C 
ATOM      5  O   UNL     1      -1.830   0.645  -0.893  1.00  0.00    -0.342 OA
ATOM      6  O   UNL     1      -2.597   1.311   1.218  1.00  0.00    -0.342 OA
ATOM      7  C   UNL     1      -1.666  -0.445   0.023  1.00  0.00     0.187 C 
ATOM      8  C   UNL     1      -1.642   0.251   1.365  1.00  0.00     0.179 C 
ATOM      9  C   UNL     1      -0.430  -1.265  -0.285  1.00  0.00     0.215 C 
ATOM     10  C   UNL     1      -0.268   0.829   1.698  1.00  0.00     0.199 C 
ATOM     11  O   UNL     1      -0.482  -2.520   0.416  1.00  0.00    -0.339 OA
ATOM     12  O   UNL     1       0.773  -0.126   1.531  1.00  0.00    -0.343 OA
ATOM     13  C   UNL     1       0.895  -2.900   0.567  1.00  0.00     0.167 C 
ATOM     14  O   UNL     1       1.745  -1.792   0.245  1.00  0.00    -0.314 OA
ATOM     15  C   UNL     1      -4.139   1.337  -0.631  1.00  0.00     0.075 C 
ATOM     16  C   UNL     1      -2.255   2.987  -0.501  1.00  0.00     0.075 C 
ATOM     17  C   UNL     1       1.205  -4.036  -0.401  1.00  0.00     0.075 C 
ATOM     18  C   UNL     1       1.131  -3.334   2.009  1.00  0.00     0.075 C 
ENDBRANCH   2   3
ENDBRANCH   1   2
BRANCH   1  19
ATOM     19  S   UNL     1       3.036   2.437  -0.529  1.00  0.00     0.333 S 
ATOM     20  O   UNL     1       3.276   2.618  -1.939  1.00  0.00    -0.182 OA
ATOM     21  O   UNL     1       2.086   3.232   0.209  1.00  0.00    -0.182 OA
BRANCH  19  22
ATOM     22  N   UNL     1       4.509   2.590   0.243  1.00  0.00    -0.205 NA
ATOM     23  H   UNL     1       4.413   2.374   1.234  1.00  0.00     0.139 HD
ATOM     24  H   UNL     1       5.217   2.033  -0.230  1.00  0.00     0.139 HD
ENDBRANCH  19  22
ENDBRANCH   1  19
TORSDOF 4
