REMARK SMILES Fc1ccc(-n2cc(CCCCN3CCC4(CC3)OCc3ccccc34)c3ccccc32)cc1
REMARK SMILES IDX 9 1 8 2 6 3 7 4 32 5 31 6 27 7 30 8 28 9 29 10 5 11 2 12
REMARK SMILES IDX 3 13 34 14 4 15 33 16 1 17 10 18 11 19 12 20 13 21 14 22
REMARK SMILES IDX 18 23 15 24 17 25 16 26 19 27 26 28 20 29 25 30 21 31 24 32
REMARK SMILES IDX 22 33 23 34
REMARK H PARENT
ROOT
ATOM      1  C   UNL     1      -2.007  -0.283  -0.819  1.00  0.00     0.038 C 
ENDROOT
BRANCH   1   2
ATOM      2  C   UNL     1      -3.475  -0.350  -0.536  1.00  0.00    -0.022 A 
ATOM      3  N   UNL     1      -5.525   0.154   0.270  1.00  0.00    -0.316 N 
ATOM      4  C   UNL     1      -4.182   0.479   0.309  1.00  0.00     0.096 A 
ATOM      5  C   UNL     1      -5.671  -0.985  -0.526  1.00  0.00     0.053 A 
ATOM      6  C   UNL     1      -6.777  -1.822  -0.786  1.00  0.00     0.027 A 
ATOM      7  C   UNL     1      -4.413  -1.282  -1.069  1.00  0.00     0.003 A 
ATOM      8  C   UNL     1      -6.621  -2.906  -1.656  1.00  0.00     0.002 A 
ATOM      9  C   UNL     1      -4.284  -2.377  -1.951  1.00  0.00     0.010 A 
ATOM     10  C   UNL     1      -5.393  -3.174  -2.244  1.00  0.00     0.001 A 
BRANCH   3  11
ATOM     11  C   UNL     1      -6.547   0.900   0.936  1.00  0.00     0.046 A 
ATOM     12  C   UNL     1      -8.519   2.395   2.231  1.00  0.00     0.123 A 
ATOM     13  C   UNL     1      -8.829   1.721   1.056  1.00  0.00     0.041 A 
ATOM     14  C   UNL     1      -7.237   2.346   2.764  1.00  0.00     0.041 A 
ATOM     15  C   UNL     1      -7.843   0.976   0.404  1.00  0.00     0.029 A 
ATOM     16  C   UNL     1      -6.246   1.604   2.114  1.00  0.00     0.029 A 
ATOM     17  F   UNL     1      -9.466   3.109   2.853  1.00  0.00    -0.207 F 
ENDBRANCH   3  11
ENDBRANCH   1   2
BRANCH   1  18
ATOM     18  C   UNL     1      -1.202  -1.202   0.105  1.00  0.00     0.006 C 
BRANCH  18  19
ATOM     19  C   UNL     1       0.291  -1.260  -0.238  1.00  0.00     0.016 C 
BRANCH  19  20
ATOM     20  C   UNL     1       1.027   0.058   0.041  1.00  0.00     0.084 C 
BRANCH  20  21
ATOM     21  N   UNL     1       2.451   0.010  -0.344  1.00  0.00    -0.303 NA
ATOM     22  C   UNL     1       3.237  -0.833   0.574  1.00  0.00     0.088 C 
ATOM     23  C   UNL     1       3.004   1.378  -0.358  1.00  0.00     0.088 C 
ATOM     24  C   UNL     1       4.700  -0.919   0.136  1.00  0.00     0.056 C 
ATOM     25  C   UNL     1       4.452   1.388  -0.844  1.00  0.00     0.056 C 
ATOM     26  C   UNL     1       5.327   0.472   0.011  1.00  0.00     0.096 C 
ATOM     27  O   UNL     1       5.442   1.062   1.341  1.00  0.00    -0.365 OA
ATOM     28  C   UNL     1       6.746   0.403  -0.467  1.00  0.00    -0.011 A 
ATOM     29  C   UNL     1       6.809   0.982   1.804  1.00  0.00     0.197 C 
ATOM     30  C   UNL     1       7.248   0.082  -1.721  1.00  0.00     0.007 A 
ATOM     31  C   UNL     1       7.602   0.707   0.583  1.00  0.00    -0.016 A 
ATOM     32  C   UNL     1       8.632   0.076  -1.904  1.00  0.00     0.000 A 
ATOM     33  C   UNL     1       8.978   0.699   0.419  1.00  0.00     0.006 A 
ATOM     34  C   UNL     1       9.493   0.383  -0.839  1.00  0.00     0.000 A 
ENDBRANCH  20  21
ENDBRANCH  19  20
ENDBRANCH  18  19
ENDBRANCH   1  18
TORSDOF 6
