REMARK SMILES O=C1NC(=CCl)Nc2sc3c(c21)CCCC3
REMARK SMILES IDX 1 1 2 2 3 3 4 4 5 5 6 6 7 7 8 8 9 9 10 10 11 11 12 12 13 13
REMARK SMILES IDX 14 14 15 15 16 16
REMARK H PARENT 3 17 7 18
ROOT
ATOM      1  O   UNL     1       0.921   1.004  -2.503  1.00  0.00    -0.269 OA
ATOM      2  C   UNL     1       1.433   0.702  -1.428  1.00  0.00     0.260 C 
ATOM      3  N   UNL     1       2.795   0.841  -1.221  1.00  0.00    -0.307 N 
ATOM      4  C   UNL     1       3.439   0.529  -0.039  1.00  0.00     0.122 C 
ATOM      5  C   UNL     1       4.767   0.706   0.050  1.00  0.00     0.125 C 
ATOM      6  Cl  UNL     1       5.770   1.302  -1.210  1.00  0.00    -0.089 Cl
ATOM      7  N   UNL     1       2.683   0.045   1.011  1.00  0.00    -0.332 N 
ATOM      8  C   UNL     1       1.346  -0.117   0.879  1.00  0.00     0.107 A 
ATOM      9  S   UNL     1       0.321  -0.695   2.102  1.00  0.00    -0.122 S 
ATOM     10  C   UNL     1      -1.044  -0.552   1.092  1.00  0.00     0.011 A 
ATOM     11  C   UNL     1      -0.729  -0.084  -0.173  1.00  0.00    -0.019 A 
ATOM     12  C   UNL     1       0.675   0.181  -0.290  1.00  0.00     0.078 A 
ATOM     13  C   UNL     1      -1.778   0.128  -1.225  1.00  0.00     0.037 C 
ATOM     14  C   UNL     1      -3.098  -0.576  -0.869  1.00  0.00     0.005 C 
ATOM     15  C   UNL     1      -3.479  -0.363   0.603  1.00  0.00     0.006 C 
ATOM     16  C   UNL     1      -2.416  -0.935   1.553  1.00  0.00     0.047 C 
ATOM     17  H   UNL     1       3.328   1.200  -2.002  1.00  0.00     0.171 HD
ATOM     18  H   UNL     1       3.153  -0.181   1.880  1.00  0.00     0.169 HD
ENDROOT
TORSDOF 0
