REMARK SMILES CCC(CO[N+](=O)[O-])(CO[N+](=O)[O-])CO[N+](=O)[O-]
REMARK SMILES IDX 3 1 2 2 1 3 4 4 5 5 6 6 7 7 8 8 9 9 10 10 11 11 12 12 13 13
REMARK SMILES IDX 14 14 15 15 16 16 17 17 18 18
REMARK H PARENT
ROOT
ATOM      1  C   UNL     1      -0.052  -0.000  -0.127  1.00  0.00     0.041 C 
ENDROOT
BRANCH   1   2
ATOM      2  C   UNL     1      -0.690  -0.105  -1.546  1.00  0.00     0.009 C 
ATOM      3  C   UNL     1      -1.893  -1.033  -1.667  1.00  0.00     0.005 C 
ENDBRANCH   1   2
BRANCH   1   4
ATOM      4  C   UNL     1      -1.068   0.639   0.859  1.00  0.00     0.219 C 
BRANCH   4   5
ATOM      5  O   UNL     1      -0.442   0.860   2.122  1.00  0.00    -0.313 OA
BRANCH   5   6
ATOM      6  N   UNL     1      -1.317   1.448   3.072  1.00  0.00     0.294 N 
ATOM      7  O   UNL     1      -0.771   1.649   4.154  1.00  0.00    -0.109 OA
ATOM      8  O   UNL     1      -2.472   1.670   2.709  1.00  0.00    -0.109 OA
ENDBRANCH   5   6
ENDBRANCH   4   5
ENDBRANCH   1   4
BRANCH   1   9
ATOM      9  C   UNL     1       1.224   0.888  -0.232  1.00  0.00     0.219 C 
BRANCH   9  10
ATOM     10  O   UNL     1       0.861   2.209  -0.630  1.00  0.00    -0.313 OA
BRANCH  10  11
ATOM     11  N   UNL     1       1.981   3.068  -0.767  1.00  0.00     0.294 N 
ATOM     12  O   UNL     1       1.667   4.203  -1.118  1.00  0.00    -0.109 OA
ATOM     13  O   UNL     1       3.088   2.589  -0.523  1.00  0.00    -0.109 OA
ENDBRANCH  10  11
ENDBRANCH   9  10
ENDBRANCH   1   9
BRANCH   1  14
ATOM     14  C   UNL     1       0.374  -1.392   0.416  1.00  0.00     0.219 C 
BRANCH  14  15
ATOM     15  O   UNL     1       1.227  -2.037  -0.527  1.00  0.00    -0.313 OA
BRANCH  15  16
ATOM     16  N   UNL     1       1.615  -3.337  -0.116  1.00  0.00     0.294 N 
ATOM     17  O   UNL     1       1.195  -3.730   0.973  1.00  0.00    -0.109 OA
ATOM     18  O   UNL     1       2.338  -3.898  -0.936  1.00  0.00    -0.109 OA
ENDBRANCH  15  16
ENDBRANCH  14  15
ENDBRANCH   1  14
TORSDOF 10
