REMARK SMILES CCc1cc(C(C)=O)c(O)cc1OCCCCCC(C)(C)c1nn[nH]n1
REMARK SMILES IDX 15 1 14 2 13 3 12 4 3 5 4 6 5 7 11 8 9 9 2 10 1 11 6 12 8 13
REMARK SMILES IDX 7 14 10 15 16 17 17 18 18 19 19 20 20 21 21 22 22 23 23 24
REMARK SMILES IDX 26 25 24 26 25 27
REMARK H PARENT 10 16 25 28
ROOT
ATOM      1  C   UNL     1       0.723   0.525  -0.773  1.00  0.00     0.042 C 
ENDROOT
BRANCH   1   2
ATOM      2  C   UNL     1      -0.427   1.260  -0.082  1.00  0.00     0.229 C 
BRANCH   2   3
ATOM      3  O   UNL     1      -1.557   0.392  -0.026  1.00  0.00    -0.493 OA
BRANCH   3   4
ATOM      4  C   UNL     1      -2.699   0.852   0.574  1.00  0.00     0.126 A 
ATOM      5  C   UNL     1      -3.767  -0.061   0.629  1.00  0.00    -0.005 A 
ATOM      6  C   UNL     1      -4.981   0.334   1.216  1.00  0.00     0.023 A 
ATOM      7  C   UNL     1      -5.140   1.614   1.766  1.00  0.00     0.060 A 
ATOM      8  C   UNL     1      -2.859   2.135   1.108  1.00  0.00     0.093 A 
ATOM      9  C   UNL     1      -4.073   2.514   1.696  1.00  0.00     0.130 A 
BRANCH   5  10
ATOM     10  C   UNL     1      -3.654  -1.451   0.044  1.00  0.00     0.036 C 
ATOM     11  C   UNL     1      -3.928  -1.463  -1.453  1.00  0.00     0.009 C 
ENDBRANCH   5  10
BRANCH   7  12
ATOM     12  C   UNL     1      -6.462   1.934   2.376  1.00  0.00     0.163 C 
ATOM     13  O   UNL     1      -7.464   1.329   1.993  1.00  0.00    -0.294 OA
ATOM     14  C   UNL     1      -6.554   2.968   3.466  1.00  0.00     0.093 C 
ENDBRANCH   7  12
BRANCH   9  15
ATOM     15  O   UNL     1      -4.204   3.789   2.173  1.00  0.00    -0.507 OA
ATOM     16  H   UNL     1      -3.396   4.295   1.983  1.00  0.00     0.293 HD
ENDBRANCH   9  15
ENDBRANCH   3   4
ENDBRANCH   2   3
ENDBRANCH   1   2
BRANCH   1  17
ATOM     17  C   UNL     1       1.194  -0.692   0.030  1.00  0.00     0.004 C 
BRANCH  17  18
ATOM     18  C   UNL     1       2.284  -1.508  -0.678  1.00  0.00     0.001 C 
BRANCH  18  19
ATOM     19  C   UNL     1       3.604  -0.742  -0.839  1.00  0.00     0.014 C 
BRANCH  19  20
ATOM     20  C   UNL     1       4.799  -1.554  -1.424  1.00  0.00     0.029 C 
ATOM     21  C   UNL     1       4.433  -2.143  -2.805  1.00  0.00     0.020 C 
ATOM     22  C   UNL     1       5.161  -2.734  -0.494  1.00  0.00     0.020 C 
BRANCH  20  23
ATOM     23  C   UNL     1       5.985  -0.623  -1.541  1.00  0.00     0.180 A 
ATOM     24  N   UNL     1       6.851  -0.388  -0.502  1.00  0.00    -0.113 NA
ATOM     25  N   UNL     1       6.271   0.103  -2.634  1.00  0.00    -0.139 NA
ATOM     26  N   UNL     1       7.737   0.493  -0.942  1.00  0.00    -0.050 NA
ATOM     27  N   UNL     1       7.363   0.752  -2.200  1.00  0.00    -0.177 N 
ATOM     28  H   UNL     1       7.877   1.404  -2.786  1.00  0.00     0.216 HD
ENDBRANCH  20  23
ENDBRANCH  19  20
ENDBRANCH  18  19
ENDBRANCH  17  18
ENDBRANCH   1  17
TORSDOF 11
