REMARK SMILES Cc1c(-c2cnccn2)ssc1=S
REMARK SMILES IDX 1 1 2 2 3 3 10 4 11 5 12 6 13 7 4 8 5 9 9 10 6 11 8 12 7 13
REMARK H PARENT
ROOT
ATOM      1  C   UNL     1       1.543  -1.538  -0.256  1.00  0.00     0.048 C 
ATOM      2  C   UNL     1       1.720  -0.109   0.165  1.00  0.00    -0.002 C 
ATOM      3  C   UNL     1       0.745   0.818   0.266  1.00  0.00     0.070 C 
ATOM      4  S   UNL     1       1.141   2.423   0.792  1.00  0.00    -0.077 SA
ATOM      5  S   UNL     1       3.144   2.146   0.598  1.00  0.00    -0.068 SA
ATOM      6  C   UNL     1       3.094   0.389   0.491  1.00  0.00     0.105 C 
ATOM      7  S   UNL     1       4.484  -0.524   0.706  1.00  0.00    -0.067 S 
ENDROOT
BRANCH   3   8
ATOM      8  C   UNL     1      -0.685   0.548   0.051  1.00  0.00     0.100 A 
ATOM      9  C   UNL     1      -1.460   1.289  -0.841  1.00  0.00     0.140 A 
ATOM     10  N   UNL     1      -1.226  -0.476   0.762  1.00  0.00    -0.252 NA
ATOM     11  N   UNL     1      -2.778   1.048  -1.054  1.00  0.00    -0.261 NA
ATOM     12  C   UNL     1      -2.544  -0.710   0.555  1.00  0.00     0.132 A 
ATOM     13  C   UNL     1      -3.302   0.034  -0.332  1.00  0.00     0.131 A 
ENDBRANCH   3   8
TORSDOF 1
