REMARK SMILES CONC(=O)Nc1ccc(-c2sc3c(c2CN(C)C)c(=O)n(-c2ccc(OC)nn2)c(=O)n3Cc2c(F)cccc2F)cc1
REMARK SMILES IDX 11 1 12 2 13 3 14 4 15 5 20 6 21 7 22 8 31 9 32 10 33 11
REMARK SMILES IDX 10 12 7 13 8 14 44 15 9 16 43 17 6 18 3 19 4 20 5 21 2 24
REMARK SMILES IDX 1 25 16 26 17 27 18 28 19 29 34 30 35 31 36 32 41 33 38 34
REMARK SMILES IDX 40 35 39 36 37 37 42 38 23 39 24 40 30 41 25 42 29 43 26 44
REMARK SMILES IDX 27 45 28 46
REMARK H PARENT 3 22 6 23
ROOT
ATOM      1  C   UNL     1       0.796  -0.503   0.765  1.00  0.00     0.042 A 
ATOM      2  S   UNL     1      -0.273  -1.785   0.388  1.00  0.00    -0.116 S 
ATOM      3  C   UNL     1      -1.611  -0.753   0.384  1.00  0.00     0.113 A 
ATOM      4  C   UNL     1      -1.296   0.531   0.719  1.00  0.00     0.081 A 
ATOM      5  C   UNL     1       0.130   0.711   0.893  1.00  0.00    -0.000 A 
ATOM      6  C   UNL     1      -2.363   1.502   0.848  1.00  0.00     0.271 C 
ATOM      7  O   UNL     1      -2.163   2.566   1.432  1.00  0.00    -0.268 OA
ATOM      8  N   UNL     1      -3.611   1.078   0.370  1.00  0.00    -0.209 N 
ATOM      9  C   UNL     1      -3.926  -0.258   0.041  1.00  0.00     0.338 C 
ATOM     10  O   UNL     1      -5.052  -0.628  -0.307  1.00  0.00    -0.247 OA
ATOM     11  N   UNL     1      -2.882  -1.204   0.079  1.00  0.00    -0.279 N 
ENDROOT
BRANCH   1  12
ATOM     12  C   UNL     1       2.221  -0.800   0.901  1.00  0.00    -0.008 A 
ATOM     13  C   UNL     1       4.976  -1.345   1.165  1.00  0.00     0.042 A 
ATOM     14  C   UNL     1       4.184  -1.102   2.295  1.00  0.00     0.027 A 
ATOM     15  C   UNL     1       4.379  -1.307  -0.096  1.00  0.00     0.027 A 
ATOM     16  C   UNL     1       2.817  -0.831   2.165  1.00  0.00     0.012 A 
ATOM     17  C   UNL     1       3.011  -1.040  -0.228  1.00  0.00     0.012 A 
BRANCH  13  18
ATOM     18  N   UNL     1       6.344  -1.601   1.381  1.00  0.00    -0.306 N 
ATOM     19  N   UNL     1       8.550  -2.061   1.041  1.00  0.00    -0.217 N 
ATOM     20  C   UNL     1       7.292  -1.981   0.443  1.00  0.00     0.343 C 
ATOM     21  O   UNL     1       7.079  -2.240  -0.735  1.00  0.00    -0.246 OA
ATOM     22  H   UNL     1       8.759  -1.291   1.663  1.00  0.00     0.200 HD
ATOM     23  H   UNL     1       6.651  -1.636   2.342  1.00  0.00     0.171 HD
BRANCH  19  24
ATOM     24  O   UNL     1       9.592  -2.262   0.093  1.00  0.00    -0.276 OA
ATOM     25  C   UNL     1      10.022  -3.616   0.185  1.00  0.00     0.231 C 
ENDBRANCH  19  24
ENDBRANCH  13  18
ENDBRANCH   1  12
BRANCH   5  26
ATOM     26  C   UNL     1       0.792   2.040   1.161  1.00  0.00     0.121 C 
BRANCH  26  27
ATOM     27  N   UNL     1       0.671   2.895  -0.033  1.00  0.00    -0.305 NA
ATOM     28  C   UNL     1       1.607   2.493  -1.086  1.00  0.00     0.105 C 
ATOM     29  C   UNL     1       0.911   4.292   0.336  1.00  0.00     0.105 C 
ENDBRANCH  26  27
ENDBRANCH   5  26
BRANCH  11  30
ATOM     30  C   UNL     1      -3.204  -2.586  -0.309  1.00  0.00     0.170 C 
BRANCH  30  31
ATOM     31  C   UNL     1      -2.717  -3.003  -1.674  1.00  0.00     0.043 A 
ATOM     32  C   UNL     1      -2.712  -2.153  -2.782  1.00  0.00     0.131 A 
ATOM     33  C   UNL     1      -2.300  -4.322  -1.876  1.00  0.00     0.131 A 
ATOM     34  C   UNL     1      -2.280  -2.590  -4.036  1.00  0.00     0.040 A 
ATOM     35  C   UNL     1      -1.865  -4.775  -3.121  1.00  0.00     0.040 A 
ATOM     36  C   UNL     1      -1.851  -3.905  -4.207  1.00  0.00     0.006 A 
ATOM     37  F   UNL     1      -3.117  -0.881  -2.671  1.00  0.00    -0.207 F 
ATOM     38  F   UNL     1      -2.314  -5.188  -0.852  1.00  0.00    -0.207 F 
ENDBRANCH  30  31
ENDBRANCH  11  30
BRANCH   8  39
ATOM     39  C   UNL     1      -4.679   2.042   0.353  1.00  0.00     0.166 A 
ATOM     40  C   UNL     1      -4.440   3.393   0.096  1.00  0.00     0.055 A 
ATOM     41  N   UNL     1      -5.954   1.648   0.576  1.00  0.00    -0.128 NA
ATOM     42  C   UNL     1      -5.494   4.309   0.091  1.00  0.00     0.074 A 
ATOM     43  N   UNL     1      -7.004   2.548   0.579  1.00  0.00    -0.110 NA
ATOM     44  C   UNL     1      -6.766   3.848   0.340  1.00  0.00     0.233 A 
BRANCH  44  45
ATOM     45  O   UNL     1      -7.789   4.772   0.330  1.00  0.00    -0.480 OA
ATOM     46  C   UNL     1      -9.063   4.187   0.583  1.00  0.00     0.280 C 
ENDBRANCH  44  45
ENDBRANCH   8  39
TORSDOF 9
