REMARK SMILES C=C1c2c(Cl)ccc(O)c2C(=O)C2=C(O)[C@]3(O)C(O)=C(C(N)=O)C(=O)[C@@H](N(C)C)[C@@H]3[C@@H](O)[C@H]12
REMARK SMILES IDX 1 1 2 2 3 3 4 4 5 5 6 6 7 7 8 8 10 9 11 10 12 11 13 12 14 13
REMARK SMILES IDX 16 14 18 15 20 16 24 17 25 18 26 19 30 20 31 21 33 22 32 23
REMARK SMILES IDX 9 25 15 27 27 29 28 30 29 31 17 32 19 34 21 36 22 37 23 38
REMARK H PARENT 32 24 9 26 15 28 17 33 19 35 22 39 22 40
ROOT
ATOM      1  C   UNL     1       2.202  -2.515  -0.814  1.00  0.00     0.014 C 
ATOM      2  C   UNL     1       2.425  -1.192  -0.912  1.00  0.00    -0.035 C 
ATOM      3  C   UNL     1       3.811  -0.658  -0.945  1.00  0.00     0.011 A 
ATOM      4  C   UNL     1       4.836  -1.130  -1.792  1.00  0.00     0.049 A 
ATOM      5  Cl  UNL     1       4.564  -2.324  -3.018  1.00  0.00    -0.084 Cl
ATOM      6  C   UNL     1       6.128  -0.595  -1.724  1.00  0.00     0.025 A 
ATOM      7  C   UNL     1       6.416   0.430  -0.829  1.00  0.00     0.048 A 
ATOM      8  C   UNL     1       5.406   0.940  -0.021  1.00  0.00     0.127 A 
ATOM      9  C   UNL     1       4.100   0.422  -0.085  1.00  0.00     0.073 A 
ATOM     10  C   UNL     1       3.028   1.039   0.748  1.00  0.00     0.197 C 
ATOM     11  O   UNL     1       3.374   1.829   1.622  1.00  0.00    -0.289 OA
ATOM     12  C   UNL     1       1.594   0.712   0.420  1.00  0.00     0.051 C 
ATOM     13  C   UNL     1       0.571   1.139   1.188  1.00  0.00     0.140 C 
ATOM     14  C   UNL     1      -0.910   0.924   0.849  1.00  0.00     0.186 C 
ATOM     15  C   UNL     1      -1.585  -0.092   1.778  1.00  0.00     0.149 C 
ATOM     16  C   UNL     1      -2.474  -1.023   1.361  1.00  0.00     0.125 C 
ATOM     17  C   UNL     1      -2.874  -1.041  -0.081  1.00  0.00     0.189 C 
ATOM     18  O   UNL     1      -3.492  -2.002  -0.547  1.00  0.00    -0.292 OA
ATOM     19  C   UNL     1      -2.544   0.183  -0.948  1.00  0.00     0.138 C 
ATOM     20  C   UNL     1      -1.078   0.577  -0.643  1.00  0.00     0.091 C 
ATOM     21  C   UNL     1      -0.083  -0.538  -1.044  1.00  0.00     0.135 C 
ATOM     22  C   UNL     1       1.386  -0.079  -0.848  1.00  0.00     0.086 C 
ENDROOT
BRANCH  21  23
ATOM     23  O   UNL     1      -0.314  -0.856  -2.420  1.00  0.00    -0.392 OA
ATOM     24  H   UNL     1       0.355  -1.509  -2.703  1.00  0.00     0.211 HD
ENDBRANCH  21  23
BRANCH   8  25
ATOM     25  O   UNL     1       5.771   1.964   0.811  1.00  0.00    -0.507 OA
ATOM     26  H   UNL     1       4.994   2.191   1.375  1.00  0.00     0.293 HD
ENDBRANCH   8  25
BRANCH  13  27
ATOM     27  O   UNL     1       0.793   1.909   2.320  1.00  0.00    -0.508 OA
ATOM     28  H   UNL     1      -0.092   2.190   2.633  1.00  0.00     0.293 HD
ENDBRANCH  13  27
BRANCH  19  29
ATOM     29  N   UNL     1      -3.529   1.290  -0.682  1.00  0.00    -0.299 NA
ATOM     30  C   UNL     1      -4.920   0.811  -0.807  1.00  0.00     0.105 C 
ATOM     31  C   UNL     1      -3.355   2.379  -1.666  1.00  0.00     0.105 C 
ENDBRANCH  19  29
BRANCH  14  32
ATOM     32  O   UNL     1      -1.539   2.186   1.129  1.00  0.00    -0.374 OA
ATOM     33  H   UNL     1      -2.453   2.127   0.781  1.00  0.00     0.212 HD
ENDBRANCH  14  32
BRANCH  15  34
ATOM     34  O   UNL     1      -1.228   0.054   3.120  1.00  0.00    -0.508 OA
ATOM     35  H   UNL     1      -1.685  -0.626   3.667  1.00  0.00     0.293 HD
ENDBRANCH  15  34
BRANCH  16  36
ATOM     36  C   UNL     1      -3.052  -1.981   2.351  1.00  0.00     0.255 C 
ATOM     37  N   UNL     1      -3.922  -2.910   1.886  1.00  0.00    -0.365 N 
ATOM     38  O   UNL     1      -2.754  -1.942   3.543  1.00  0.00    -0.269 OA
ATOM     39  H   UNL     1      -4.302  -3.594   2.527  1.00  0.00     0.159 HD
ATOM     40  H   UNL     1      -4.133  -3.002   0.893  1.00  0.00     0.159 HD
ENDBRANCH  16  36
TORSDOF 7
