REMARK SMILES Nc1ncnc2c1ncn2[C@@H]1O[C@H](CO)C[C@@H]1F
REMARK SMILES IDX 11 1 12 2 13 3 16 4 17 5 18 6 10 7 2 8 3 9 7 10 4 11 6 12
REMARK SMILES IDX 8 13 5 14 9 15 1 16 14 19 15 20
REMARK H PARENT 1 17 1 18 15 21
ROOT
ATOM      1  C   UNL     1       0.786   0.312  -1.012  1.00  0.00     0.256 C 
ATOM      2  O   UNL     1       1.679  -0.796  -1.269  1.00  0.00    -0.349 OA
ATOM      3  C   UNL     1       2.943  -0.522  -0.622  1.00  0.00     0.149 C 
ATOM      4  C   UNL     1       2.926   0.961  -0.280  1.00  0.00     0.077 C 
ATOM      5  C   UNL     1       1.469   1.205   0.015  1.00  0.00     0.219 C 
ATOM      6  F   UNL     1       1.224   0.766   1.282  1.00  0.00    -0.242 F 
ENDROOT
BRANCH   1   7
ATOM      7  N   UNL     1      -0.513  -0.171  -0.608  1.00  0.00    -0.285 N 
ATOM      8  C   UNL     1      -3.903   0.315   0.107  1.00  0.00     0.155 A 
ATOM      9  N   UNL     1      -4.056   1.646  -0.085  1.00  0.00    -0.217 NA
ATOM     10  C   UNL     1      -2.632  -0.249  -0.090  1.00  0.00     0.150 A 
ATOM     11  C   UNL     1      -2.983   2.364  -0.484  1.00  0.00     0.226 A 
ATOM     12  C   UNL     1      -1.627   0.614  -0.493  1.00  0.00     0.167 A 
ATOM     13  N   UNL     1      -2.147  -1.534   0.051  1.00  0.00    -0.231 NA
ATOM     14  N   UNL     1      -1.723   1.936  -0.715  1.00  0.00    -0.216 NA
ATOM     15  C   UNL     1      -0.873  -1.450  -0.278  1.00  0.00     0.204 A 
BRANCH   8  16
ATOM     16  N   UNL     1      -5.009  -0.422   0.511  1.00  0.00    -0.382 N 
ATOM     17  H   UNL     1      -4.764  -1.302   0.951  1.00  0.00     0.158 HD
ATOM     18  H   UNL     1      -5.709   0.153   0.959  1.00  0.00     0.158 HD
ENDBRANCH   8  16
ENDBRANCH   1   7
BRANCH   3  19
ATOM     19  C   UNL     1       3.089  -1.427   0.612  1.00  0.00     0.188 C 
BRANCH  19  20
ATOM     20  O   UNL     1       3.353  -2.765   0.192  1.00  0.00    -0.394 OA
ATOM     21  H   UNL     1       3.314  -3.328   0.984  1.00  0.00     0.210 HD
ENDBRANCH  19  20
ENDBRANCH   3  19
TORSDOF 4
