REMARK SMILES FC1(F)C(F)(F)C(F)(F)C2(F)C(F)(F)C(F)(F)C(F)(F)C(F)(F)C2(F)C1(F)F
REMARK SMILES IDX 5 1 4 2 6 3 2 4 1 5 3 6 26 7 27 8 28 9 24 10 25 11 21 12
REMARK SMILES IDX 22 13 23 14 18 15 19 16 20 17 15 18 16 19 17 20 12 21 13 22
REMARK SMILES IDX 14 23 10 24 11 25 7 26 8 27 9 28
REMARK H PARENT
ROOT
ATOM      1  F   UNL     1       2.366   1.028   1.484  1.00  0.00    -0.192 F 
ATOM      2  C   UNL     1       2.466   0.787   0.148  1.00  0.00     0.382 C 
ATOM      3  F   UNL     1       3.607   1.396  -0.258  1.00  0.00    -0.192 F 
ATOM      4  C   UNL     1       2.497  -0.692  -0.081  1.00  0.00     0.382 C 
ATOM      5  F   UNL     1       2.442  -0.935  -1.419  1.00  0.00    -0.192 F 
ATOM      6  F   UNL     1       3.650  -1.257   0.356  1.00  0.00    -0.192 F 
ATOM      7  C   UNL     1       1.295  -1.333   0.617  1.00  0.00     0.359 C 
ATOM      8  F   UNL     1       1.140  -2.563   0.067  1.00  0.00    -0.195 F 
ATOM      9  F   UNL     1       1.576  -1.566   1.930  1.00  0.00    -0.195 F 
ATOM     10  C   UNL     1       0.002  -0.494   0.570  1.00  0.00     0.295 C 
ATOM     11  F   UNL     1      -0.029   0.317   1.679  1.00  0.00    -0.226 F 
ATOM     12  C   UNL     1      -1.260  -1.382   0.583  1.00  0.00     0.359 C 
ATOM     13  F   UNL     1      -1.042  -2.605   0.037  1.00  0.00    -0.195 F 
ATOM     14  F   UNL     1      -1.566  -1.627   1.888  1.00  0.00    -0.195 F 
ATOM     15  C   UNL     1      -2.466  -0.787  -0.148  1.00  0.00     0.382 C 
ATOM     16  F   UNL     1      -2.366  -1.027  -1.484  1.00  0.00    -0.192 F 
ATOM     17  F   UNL     1      -3.607  -1.396   0.258  1.00  0.00    -0.192 F 
ATOM     18  C   UNL     1      -2.497   0.692   0.081  1.00  0.00     0.382 C 
ATOM     19  F   UNL     1      -3.650   1.257  -0.356  1.00  0.00    -0.192 F 
ATOM     20  F   UNL     1      -2.442   0.935   1.419  1.00  0.00    -0.192 F 
ATOM     21  C   UNL     1      -1.295   1.333  -0.617  1.00  0.00     0.359 C 
ATOM     22  F   UNL     1      -1.140   2.563  -0.066  1.00  0.00    -0.195 F 
ATOM     23  F   UNL     1      -1.576   1.566  -1.930  1.00  0.00    -0.195 F 
ATOM     24  C   UNL     1      -0.002   0.494  -0.570  1.00  0.00     0.295 C 
ATOM     25  F   UNL     1       0.029  -0.317  -1.679  1.00  0.00    -0.226 F 
ATOM     26  C   UNL     1       1.260   1.382  -0.583  1.00  0.00     0.359 C 
ATOM     27  F   UNL     1       1.566   1.626  -1.888  1.00  0.00    -0.195 F 
ATOM     28  F   UNL     1       1.042   2.605  -0.037  1.00  0.00    -0.195 F 
ENDROOT
TORSDOF 0
