REMARK SMILES CSc1nc(NC2CCCC2)c([N+](=O)[O-])c(NC2CCCC2)n1
REMARK SMILES IDX 3 1 4 2 5 3 12 4 16 5 23 6 2 7 1 8 6 9 7 11 8 12 11 13 9 14
REMARK SMILES IDX 10 15 17 16 18 18 19 19 22 20 20 21 21 22 13 23 14 24 15 25
REMARK H PARENT 6 10 17 17
ROOT
ATOM      1  C   UNL     1       0.460   1.745   0.976  1.00  0.00     0.191 A 
ATOM      2  N   UNL     1       1.450   1.185   0.263  1.00  0.00    -0.198 NA
ATOM      3  C   UNL     1       1.123   0.312  -0.708  1.00  0.00     0.212 A 
ATOM      4  C   UNL     1      -0.205  -0.026  -0.908  1.00  0.00     0.353 A 
ATOM      5  C   UNL     1      -1.175   0.583  -0.134  1.00  0.00     0.212 A 
ATOM      6  N   UNL     1      -0.846   1.487   0.803  1.00  0.00    -0.198 NA
ENDROOT
BRANCH   1   7
ATOM      7  S   UNL     1       0.958   2.904   2.226  1.00  0.00    -0.090 SA
ATOM      8  C   UNL     1      -0.652   3.353   2.920  1.00  0.00     0.094 C 
ENDBRANCH   1   7
BRANCH   3   9
ATOM      9  N   UNL     1       2.157  -0.278  -1.463  1.00  0.00    -0.361 N 
ATOM     10  H   UNL     1       1.948  -0.178  -2.460  1.00  0.00     0.162 HD
BRANCH   9  11
ATOM     11  C   UNL     1       3.523   0.163  -1.163  1.00  0.00     0.081 C 
ATOM     12  C   UNL     1       4.055  -0.454   0.144  1.00  0.00     0.025 C 
ATOM     13  C   UNL     1       4.476  -0.339  -2.261  1.00  0.00     0.025 C 
ATOM     14  C   UNL     1       5.235  -1.335  -0.249  1.00  0.00     0.002 C 
ATOM     15  C   UNL     1       5.754  -0.701  -1.526  1.00  0.00     0.002 C 
ENDBRANCH   9  11
ENDBRANCH   3   9
BRANCH   5  16
ATOM     16  N   UNL     1      -2.554   0.373  -0.258  1.00  0.00    -0.361 N 
ATOM     17  H   UNL     1      -2.968   1.144   0.272  1.00  0.00     0.162 HD
BRANCH  16  18
ATOM     18  C   UNL     1      -3.014  -0.897   0.341  1.00  0.00     0.081 C 
ATOM     19  C   UNL     1      -3.660  -0.666   1.710  1.00  0.00     0.025 C 
ATOM     20  C   UNL     1      -4.176  -1.452  -0.478  1.00  0.00     0.025 C 
ATOM     21  C   UNL     1      -5.089  -0.212   1.413  1.00  0.00     0.002 C 
ATOM     22  C   UNL     1      -5.393  -0.656  -0.016  1.00  0.00     0.002 C 
ENDBRANCH  16  18
ENDBRANCH   5  16
BRANCH   4  23
ATOM     23  N   UNL     1      -0.557  -0.901  -1.981  1.00  0.00     0.070 N 
ATOM     24  O   UNL     1      -0.399  -0.466  -3.133  1.00  0.00    -0.258 OA
ATOM     25  O   UNL     1      -0.949  -2.041  -1.695  1.00  0.00    -0.258 OA
ENDBRANCH   4  23
TORSDOF 6
