REMARK SMILES C[n+]1cc2c3c(ccc2c2ccc4cc5c(cc4c21)OCO5)OCO3
REMARK SMILES IDX 1 1 2 2 3 3 4 4 5 5 6 6 7 7 8 8 9 9 10 10 11 11 12 12 13 13
REMARK SMILES IDX 14 14 15 15 16 16 17 17 18 18 19 19 20 20 21 21 22 22 23 23
REMARK SMILES IDX 24 24 25 25
REMARK H PARENT
ROOT
ATOM      1  C   UNL     1      -0.046   2.543  -0.715  1.00  0.00     0.440 C 
ATOM      2  N   UNL     1       0.473   1.251  -0.211  1.00  0.00    -0.200 N 
ATOM      3  C   UNL     1       1.808   1.225   0.002  1.00  0.00     0.321 A 
ATOM      4  C   UNL     1       2.511   0.048   0.179  1.00  0.00     0.092 A 
ATOM      5  C   UNL     1       3.890   0.061   0.374  1.00  0.00     0.179 A 
ATOM      6  C   UNL     1       4.619  -1.092   0.509  1.00  0.00     0.166 A 
ATOM      7  C   UNL     1       4.019  -2.322   0.454  1.00  0.00     0.051 A 
ATOM      8  C   UNL     1       2.631  -2.361   0.260  1.00  0.00     0.014 A 
ATOM      9  C   UNL     1       1.832  -1.177   0.119  1.00  0.00     0.006 A 
ATOM     10  C   UNL     1       0.412  -1.141  -0.057  1.00  0.00     0.055 A 
ATOM     11  C   UNL     1      -0.336  -2.324  -0.179  1.00  0.00     0.016 A 
ATOM     12  C   UNL     1      -1.720  -2.316  -0.311  1.00  0.00     0.010 A 
ATOM     13  C   UNL     1      -2.438  -1.130  -0.239  1.00  0.00    -0.008 A 
ATOM     14  C   UNL     1      -3.842  -1.214  -0.288  1.00  0.00     0.059 A 
ATOM     15  C   UNL     1      -4.578  -0.069  -0.125  1.00  0.00     0.166 A 
ATOM     16  C   UNL     1      -3.968   1.127   0.101  1.00  0.00     0.166 A 
ATOM     17  C   UNL     1      -2.591   1.246   0.145  1.00  0.00     0.066 A 
ATOM     18  C   UNL     1      -1.751   0.116  -0.085  1.00  0.00     0.058 A 
ATOM     19  C   UNL     1      -0.298   0.111  -0.116  1.00  0.00     0.220 A 
ATOM     20  O   UNL     1      -4.854   2.140   0.287  1.00  0.00    -0.454 OA
ATOM     21  C   UNL     1      -6.109   1.432   0.143  1.00  0.00     0.468 C 
ATOM     22  O   UNL     1      -5.931   0.025  -0.123  1.00  0.00    -0.454 OA
ATOM     23  O   UNL     1       5.944  -0.860   0.688  1.00  0.00    -0.454 OA
ATOM     24  C   UNL     1       5.983   0.579   0.655  1.00  0.00     0.468 C 
ATOM     25  O   UNL     1       4.678   1.173   0.446  1.00  0.00    -0.453 OA
ENDROOT
TORSDOF 0
