REMARK SMILES CCCN(CC1CC1)c1nc(C)nc(Nc2c(Cl)cc(Cl)cc2Cl)c1Cl
REMARK SMILES IDX 9 1 10 2 11 3 12 4 13 5 14 6 25 7 26 8 4 9 3 10 2 11 1 12
REMARK SMILES IDX 5 13 6 14 7 15 8 16 15 17 16 19 17 20 23 21 19 22 22 23
REMARK SMILES IDX 20 24 18 25 24 26 21 27
REMARK H PARENT 15 18
ROOT
ATOM      1  C   UNL     1      -0.876   0.319  -0.287  1.00  0.00     0.153 A 
ATOM      2  N   UNL     1      -0.619  -0.465  -1.356  1.00  0.00    -0.215 NA
ATOM      3  C   UNL     1       0.652  -0.854  -1.544  1.00  0.00     0.130 A 
ATOM      4  C   UNL     1       0.938  -1.745  -2.711  1.00  0.00     0.090 C 
ATOM      5  N   UNL     1       1.677  -0.540  -0.738  1.00  0.00    -0.214 NA
ATOM      6  C   UNL     1       1.417   0.258   0.319  1.00  0.00     0.155 A 
ATOM      7  C   UNL     1       0.133   0.724   0.586  1.00  0.00     0.126 A 
ATOM      8  Cl  UNL     1      -0.185   1.736   1.955  1.00  0.00    -0.076 Cl
ENDROOT
BRANCH   1   9
ATOM      9  N   UNL     1      -2.221   0.736  -0.061  1.00  0.00    -0.355 N 
BRANCH   9  10
ATOM     10  C   UNL     1      -2.668   1.532  -1.220  1.00  0.00     0.118 C 
BRANCH  10  11
ATOM     11  C   UNL     1      -3.760   2.516  -0.787  1.00  0.00     0.018 C 
ATOM     12  C   UNL     1      -4.201   3.400  -1.942  1.00  0.00     0.006 C 
ENDBRANCH  10  11
ENDBRANCH   9  10
BRANCH   9  13
ATOM     13  C   UNL     1      -3.068  -0.439   0.214  1.00  0.00     0.121 C 
BRANCH  13  14
ATOM     14  C   UNL     1      -2.820  -0.948   1.607  1.00  0.00     0.008 C 
ATOM     15  C   UNL     1      -3.313  -2.316   2.011  1.00  0.00     0.006 C 
ATOM     16  C   UNL     1      -1.838  -2.063   1.873  1.00  0.00     0.006 C 
ENDBRANCH  13  14
ENDBRANCH   9  13
ENDBRANCH   1   9
BRANCH   6  17
ATOM     17  N   UNL     1       2.497   0.650   1.165  1.00  0.00    -0.336 N 
ATOM     18  H   UNL     1       2.192   0.515   2.130  1.00  0.00     0.168 HD
BRANCH  17  19
ATOM     19  C   UNL     1       3.831   0.190   0.990  1.00  0.00     0.078 A 
ATOM     20  C   UNL     1       4.381  -0.741   1.894  1.00  0.00     0.067 A 
ATOM     21  C   UNL     1       4.619   0.576  -0.114  1.00  0.00     0.067 A 
ATOM     22  C   UNL     1       5.662  -1.266   1.713  1.00  0.00     0.043 A 
ATOM     23  C   UNL     1       5.903   0.052  -0.299  1.00  0.00     0.043 A 
ATOM     24  C   UNL     1       6.413  -0.867   0.613  1.00  0.00     0.044 A 
ATOM     25  Cl  UNL     1       3.473  -1.269   3.272  1.00  0.00    -0.082 Cl
ATOM     26  Cl  UNL     1       4.079   1.765  -1.252  1.00  0.00    -0.082 Cl
ATOM     27  Cl  UNL     1       7.992  -1.510   0.382  1.00  0.00    -0.084 Cl
ENDBRANCH  17  19
ENDBRANCH   6  17
TORSDOF 7
