REMARK SMILES CCc1cnc(N2CCC(c3nc(COc4ccc(-n5cnnn5)cc4)cs3)CC2)nc1
REMARK SMILES IDX 11 1 12 2 13 3 27 4 28 5 10 6 7 7 8 8 30 9 9 10 29 11 6 12
REMARK SMILES IDX 3 13 4 14 32 15 5 16 31 17 2 18 1 19 14 20 15 21 16 22 17 23
REMARK SMILES IDX 26 24 18 25 25 26 19 27 20 28 21 29 24 30 22 31 23 32
REMARK H PARENT
ROOT
ATOM      1  C   UNL     1      -0.049   0.983   0.051  1.00  0.00     0.096 A 
ATOM      2  N   UNL     1       1.226   1.313  -0.033  1.00  0.00    -0.242 NA
ATOM      3  C   UNL     1       2.039   0.197   0.121  1.00  0.00     0.089 A 
ATOM      4  C   UNL     1       1.349  -0.982   0.323  1.00  0.00     0.094 A 
ATOM      5  S   UNL     1      -0.333  -0.690   0.320  1.00  0.00    -0.127 S 
ENDROOT
BRANCH   1   6
ATOM      6  C   UNL     1      -1.155   2.008  -0.082  1.00  0.00     0.052 C 
ATOM      7  N   UNL     1      -3.929   1.186   0.117  1.00  0.00    -0.341 N 
ATOM      8  C   UNL     1      -3.142   1.241   1.348  1.00  0.00     0.120 C 
ATOM      9  C   UNL     1      -3.205   0.856  -1.109  1.00  0.00     0.120 C 
ATOM     10  C   UNL     1      -1.974   2.212   1.194  1.00  0.00     0.032 C 
ATOM     11  C   UNL     1      -2.038   1.819  -1.317  1.00  0.00     0.032 C 
BRANCH   7  12
ATOM     12  C   UNL     1      -5.129   0.469   0.260  1.00  0.00     0.225 A 
ATOM     13  C   UNL     1      -7.501  -0.892   0.533  1.00  0.00    -0.011 A 
ATOM     14  C   UNL     1      -6.887  -0.695  -0.681  1.00  0.00     0.120 A 
ATOM     15  C   UNL     1      -6.830  -0.339   1.597  1.00  0.00     0.120 A 
ATOM     16  N   UNL     1      -5.723  -0.034  -0.836  1.00  0.00    -0.221 NA
ATOM     17  N   UNL     1      -5.665   0.329   1.485  1.00  0.00    -0.221 NA
BRANCH  13  18
ATOM     18  C   UNL     1      -8.803  -1.610   0.678  1.00  0.00     0.035 C 
ATOM     19  C   UNL     1      -9.990  -0.666   0.561  1.00  0.00     0.009 C 
ENDBRANCH  13  18
ENDBRANCH   7  12
ENDBRANCH   1   6
BRANCH   3  20
ATOM     20  C   UNL     1       3.526   0.385   0.054  1.00  0.00     0.286 C 
BRANCH  20  21
ATOM     21  O   UNL     1       4.232  -0.849   0.229  1.00  0.00    -0.487 OA
BRANCH  21  22
ATOM     22  C   UNL     1       5.597  -0.799   0.187  1.00  0.00     0.120 A 
ATOM     23  C   UNL     1       6.375   0.342  -0.011  1.00  0.00     0.048 A 
ATOM     24  C   UNL     1       6.229  -2.032   0.364  1.00  0.00     0.048 A 
ATOM     25  C   UNL     1       7.774   0.252  -0.033  1.00  0.00     0.032 A 
ATOM     26  C   UNL     1       7.623  -2.132   0.344  1.00  0.00     0.032 A 
ATOM     27  C   UNL     1       8.404  -0.986   0.145  1.00  0.00     0.068 A 
BRANCH  27  28
ATOM     28  N   UNL     1       9.815  -1.099   0.127  1.00  0.00    -0.201 N 
ATOM     29  C   UNL     1      10.768  -0.127  -0.049  1.00  0.00     0.252 A 
ATOM     30  N   UNL     1      10.456  -2.279   0.296  1.00  0.00    -0.040 NA
ATOM     31  N   UNL     1      11.962  -0.671   0.006  1.00  0.00    -0.117 NA
ATOM     32  N   UNL     1      11.751  -2.007   0.220  1.00  0.00    -0.024 NA
ENDBRANCH  27  28
ENDBRANCH  21  22
ENDBRANCH  20  21
ENDBRANCH   3  20
TORSDOF 7
