REMARK SMILES O=c1n(Cl)c(=O)n(Cl)c(=O)n1Cl
REMARK SMILES IDX 1 1 2 2 3 3 4 4 5 5 6 6 7 7 8 8 9 9 10 10 11 11 12 12
REMARK H PARENT
ROOT
ATOM      1  O   UNL     1       2.296   1.338   0.074  1.00  0.00    -0.244 OA
ATOM      2  C   UNL     1       1.231   0.717   0.040  1.00  0.00     0.366 C 
ATOM      3  N   UNL     1       1.173  -0.670  -0.023  1.00  0.00    -0.148 N 
ATOM      4  Cl  UNL     1       2.694  -1.538  -0.053  1.00  0.00     0.027 Cl
ATOM      5  C   UNL     1       0.007  -1.424  -0.064  1.00  0.00     0.366 C 
ATOM      6  O   UNL     1       0.012  -2.656  -0.119  1.00  0.00    -0.244 OA
ATOM      7  N   UNL     1      -1.167  -0.680  -0.038  1.00  0.00    -0.148 N 
ATOM      8  Cl  UNL     1      -2.679  -1.561  -0.086  1.00  0.00     0.027 Cl
ATOM      9  C   UNL     1      -1.237   0.706   0.024  1.00  0.00     0.366 C 
ATOM     10  O   UNL     1      -2.308   1.318   0.045  1.00  0.00    -0.244 OA
ATOM     11  N   UNL     1      -0.006   1.350   0.061  1.00  0.00    -0.148 N 
ATOM     12  Cl  UNL     1      -0.015   3.099   0.139  1.00  0.00     0.027 Cl
ENDROOT
TORSDOF 0
