REMARK SMILES CCC[C@@H](C)C1(CC)C(=O)NC(=S)NC1=O
REMARK SMILES IDX 4 1 5 2 3 3 2 4 1 5 6 6 9 7 15 8 10 9 11 10 14 11 16 12
REMARK SMILES IDX 12 13 13 14 7 17 8 18
REMARK H PARENT 11 15 14 16
ROOT
ATOM      1  C   UNL     1       0.515  -0.846  -0.184  1.00  0.00     0.011 C 
ATOM      2  C   UNL     1       1.044  -1.918   0.786  1.00  0.00     0.009 C 
ENDROOT
BRANCH   1   3
ATOM      3  C   UNL     1       1.508   0.347  -0.263  1.00  0.00     0.004 C 
BRANCH   3   4
ATOM      4  C   UNL     1       2.893  -0.030  -0.800  1.00  0.00    -0.003 C 
ATOM      5  C   UNL     1       3.758   1.204  -1.013  1.00  0.00     0.004 C 
ENDBRANCH   3   4
ENDBRANCH   1   3
BRANCH   1   6
ATOM      6  C   UNL     1      -0.971  -0.389   0.124  1.00  0.00     0.131 C 
ATOM      7  C   UNL     1      -1.008   0.386   1.435  1.00  0.00     0.242 C 
ATOM      8  C   UNL     1      -1.439   0.427  -1.078  1.00  0.00     0.242 C 
ATOM      9  O   UNL     1      -0.951  -0.150   2.541  1.00  0.00    -0.273 OA
ATOM     10  N   UNL     1      -1.077   1.750   1.355  1.00  0.00    -0.302 N 
ATOM     11  N   UNL     1      -1.561   1.780  -0.913  1.00  0.00    -0.302 N 
ATOM     12  O   UNL     1      -1.661  -0.070  -2.181  1.00  0.00    -0.273 OA
ATOM     13  C   UNL     1      -1.388   2.466   0.245  1.00  0.00     0.179 C 
ATOM     14  S   UNL     1      -1.568   4.116   0.305  1.00  0.00    -0.040 S 
ATOM     15  H   UNL     1      -1.054   2.242   2.240  1.00  0.00     0.172 HD
ATOM     16  H   UNL     1      -1.834   2.300  -1.737  1.00  0.00     0.172 HD
BRANCH   6  17
ATOM     17  C   UNL     1      -1.923  -1.616   0.251  1.00  0.00     0.024 C 
ATOM     18  C   UNL     1      -3.402  -1.258   0.401  1.00  0.00     0.005 C 
ENDBRANCH   6  17
ENDBRANCH   1   6
TORSDOF 4
