REMARK SMILES CC(C)(C)[C@]1(O)C[C@@H]2OC(=O)C[C@@]23C(=O)O[C@@H]2OC(=O)[C@H](O)[C@]213
REMARK SMILES IDX 5 1 7 2 8 3 9 4 10 5 11 6 12 7 13 8 14 9 15 10 16 11 17 12
REMARK SMILES IDX 18 13 19 14 20 15 21 16 23 17 2 18 1 19 3 20 4 21 6 22 22 24
REMARK H PARENT 6 23 22 25
ROOT
ATOM      1  C   UNL     1       0.699   0.497  -0.366  1.00  0.00     0.090 C 
ATOM      2  C   UNL     1       0.077   1.863   0.051  1.00  0.00     0.083 C 
ATOM      3  C   UNL     1      -1.398   1.833  -0.337  1.00  0.00     0.198 C 
ATOM      4  O   UNL     1      -2.170   2.534   0.632  1.00  0.00    -0.461 OA
ATOM      5  C   UNL     1      -2.692   1.653   1.536  1.00  0.00     0.307 C 
ATOM      6  O   UNL     1      -3.306   1.987   2.535  1.00  0.00    -0.252 OA
ATOM      7  C   UNL     1      -2.331   0.241   1.173  1.00  0.00     0.146 C 
ATOM      8  C   UNL     1      -1.799   0.386  -0.235  1.00  0.00     0.134 C 
ATOM      9  C   UNL     1      -2.841   0.062  -1.275  1.00  0.00     0.320 C 
ATOM     10  O   UNL     1      -4.024   0.348  -1.205  1.00  0.00    -0.251 OA
ATOM     11  O   UNL     1      -2.273  -0.567  -2.336  1.00  0.00    -0.424 OA
ATOM     12  C   UNL     1      -0.857  -0.519  -2.185  1.00  0.00     0.383 C 
ATOM     13  O   UNL     1      -0.242  -1.704  -2.666  1.00  0.00    -0.422 OA
ATOM     14  C   UNL     1      -0.082  -2.550  -1.621  1.00  0.00     0.339 C 
ATOM     15  O   UNL     1       0.321  -3.699  -1.709  1.00  0.00    -0.249 OA
ATOM     16  C   UNL     1      -0.542  -1.894  -0.333  1.00  0.00     0.242 C 
ATOM     17  C   UNL     1      -0.569  -0.409  -0.678  1.00  0.00     0.131 C 
ENDROOT
BRANCH   1  18
ATOM     18  C   UNL     1       1.827   0.049   0.671  1.00  0.00    -0.008 C 
ATOM     19  C   UNL     1       2.869   1.194   0.881  1.00  0.00     0.014 C 
ATOM     20  C   UNL     1       2.666  -1.143   0.148  1.00  0.00     0.014 C 
ATOM     21  C   UNL     1       1.286  -0.281   2.079  1.00  0.00     0.014 C 
ENDBRANCH   1  18
BRANCH   1  22
ATOM     22  O   UNL     1       1.359   0.722  -1.620  1.00  0.00    -0.388 OA
ATOM     23  H   UNL     1       2.031   1.422  -1.529  1.00  0.00     0.211 HD
ENDBRANCH   1  22
BRANCH  16  24
ATOM     24  O   UNL     1      -1.830  -2.371   0.034  1.00  0.00    -0.380 OA
ATOM     25  H   UNL     1      -1.782  -3.349   0.059  1.00  0.00     0.211 HD
ENDBRANCH  16  24
TORSDOF 3
