REMARK SMILES Cc1nnc(-c2ccc3occ(-c4ccc([S@](C)=O)cc4)c3c2)o1
REMARK SMILES IDX 6 1 7 2 8 3 9 4 10 5 11 6 12 7 22 8 23 9 5 10 2 11 3 12
REMARK SMILES IDX 24 13 4 14 1 15 13 16 14 17 21 18 15 19 20 20 16 21 17 22
REMARK SMILES IDX 19 23 18 24
REMARK H PARENT
ROOT
ATOM      1  C   UNL     1      -2.691  -0.417   0.055  1.00  0.00     0.040 A 
ATOM      2  C   UNL     1      -3.375  -1.543   0.547  1.00  0.00     0.018 A 
ATOM      3  C   UNL     1      -2.695  -2.671   1.025  1.00  0.00     0.048 A 
ATOM      4  C   UNL     1      -1.305  -2.624   0.985  1.00  0.00     0.134 A 
ATOM      5  O   UNL     1      -0.473  -3.614   1.406  1.00  0.00    -0.464 OA
ATOM      6  C   UNL     1       0.797  -3.179   1.197  1.00  0.00     0.205 A 
ATOM      7  C   UNL     1       0.800  -1.913   0.646  1.00  0.00     0.028 A 
ATOM      8  C   UNL     1      -0.573  -1.545   0.504  1.00  0.00     0.029 A 
ATOM      9  C   UNL     1      -1.281  -0.419   0.036  1.00  0.00     0.026 A 
ENDROOT
BRANCH   1  10
ATOM     10  C   UNL     1      -3.404   0.757  -0.436  1.00  0.00     0.247 A 
ATOM     11  C   UNL     1      -5.091   1.952  -0.929  1.00  0.00     0.213 A 
ATOM     12  N   UNL     1      -4.032   2.667  -1.239  1.00  0.00    -0.113 NA
ATOM     13  O   UNL     1      -4.776   0.725  -0.411  1.00  0.00    -0.421 OA
ATOM     14  N   UNL     1      -2.936   1.891  -0.920  1.00  0.00    -0.108 NA
ATOM     15  C   UNL     1      -6.519   2.281  -1.058  1.00  0.00     0.113 C 
ENDBRANCH   1  10
BRANCH   7  16
ATOM     16  C   UNL     1       2.011  -1.195   0.297  1.00  0.00    -0.014 A 
ATOM     17  C   UNL     1       3.067  -1.087   1.211  1.00  0.00     0.010 A 
ATOM     18  C   UNL     1       2.137  -0.598  -0.963  1.00  0.00     0.010 A 
ATOM     19  C   UNL     1       4.231  -0.389   0.871  1.00  0.00     0.018 A 
ATOM     20  C   UNL     1       3.302   0.098  -1.303  1.00  0.00     0.018 A 
ATOM     21  C   UNL     1       4.350   0.211  -0.386  1.00  0.00     0.039 A 
BRANCH  21  22
ATOM     22  S   UNL     1       5.862   1.107  -0.807  1.00  0.00     0.050 S 
ATOM     23  O   UNL     1       5.780   1.386  -2.279  1.00  0.00    -0.255 OA
ATOM     24  C   UNL     1       5.450   2.648   0.054  1.00  0.00     0.129 C 
ENDBRANCH  21  22
ENDBRANCH   7  16
TORSDOF 3
