REMARK SMILES c1ccc2[nH]c(-c3cscn3)nc2c1
REMARK SMILES IDX 1 1 2 2 3 3 4 4 5 5 6 6 12 7 13 8 14 9 7 11 8 12 11 13 9 14
REMARK SMILES IDX 10 15
REMARK H PARENT 5 10
ROOT
ATOM      1  C   UNL     1      -3.521  -0.962  -0.095  1.00  0.00     0.002 A 
ATOM      2  C   UNL     1      -3.601   0.412  -0.334  1.00  0.00     0.002 A 
ATOM      3  C   UNL     1      -2.449   1.203  -0.431  1.00  0.00     0.028 A 
ATOM      4  C   UNL     1      -1.227   0.546  -0.276  1.00  0.00     0.066 A 
ATOM      5  N   UNL     1       0.072   0.985  -0.307  1.00  0.00    -0.337 N 
ATOM      6  C   UNL     1       0.901  -0.088  -0.094  1.00  0.00     0.158 A 
ATOM      7  N   UNL     1       0.200  -1.192   0.072  1.00  0.00    -0.227 NA
ATOM      8  C   UNL     1      -1.116  -0.818  -0.037  1.00  0.00     0.089 A 
ATOM      9  C   UNL     1      -2.280  -1.594   0.057  1.00  0.00     0.030 A 
ATOM     10  H   UNL     1       0.367   1.936  -0.461  1.00  0.00     0.168 HD
ENDROOT
BRANCH   6  11
ATOM     11  C   UNL     1       2.469  -0.013  -0.053  1.00  0.00     0.116 A 
ATOM     12  C   UNL     1       3.181   1.157  -0.230  1.00  0.00     0.098 A 
ATOM     13  N   UNL     1       3.240  -1.141   0.167  1.00  0.00    -0.241 NA
ATOM     14  S   UNL     1       4.866   0.839  -0.118  1.00  0.00    -0.130 S 
ATOM     15  C   UNL     1       4.512  -0.816   0.155  1.00  0.00     0.176 A 
ENDBRANCH   6  11
TORSDOF 1
