REMARK SMILES CC1(NC2=NS(=O)(=O)c3sc(Cl)cc3N2)CC1
REMARK SMILES IDX 3 1 4 2 5 3 6 4 7 5 8 6 9 7 10 8 11 9 12 10 13 11 14 12
REMARK SMILES IDX 15 13 2 16 16 17 17 18 1 19
REMARK H PARENT 3 14 15 15
ROOT
ATOM      1  N   UNL     1      -0.934   0.895  -0.246  1.00  0.00    -0.350 N 
ATOM      2  C   UNL     1       0.168   0.096   0.006  1.00  0.00     0.213 C 
ATOM      3  N   UNL     1       0.081  -1.145   0.358  1.00  0.00    -0.123 NA
ATOM      4  S   UNL     1       1.351  -2.089   0.684  1.00  0.00     0.297 S 
ATOM      5  O   UNL     1       1.459  -3.145  -0.300  1.00  0.00    -0.198 OA
ATOM      6  O   UNL     1       1.442  -2.336   2.107  1.00  0.00    -0.198 OA
ATOM      7  C   UNL     1       2.657  -0.991   0.328  1.00  0.00     0.167 A 
ATOM      8  S   UNL     1       4.272  -1.496   0.432  1.00  0.00    -0.108 S 
ATOM      9  C   UNL     1       4.801   0.042  -0.062  1.00  0.00     0.096 A 
ATOM     10  Cl  UNL     1       6.483   0.354  -0.216  1.00  0.00    -0.072 Cl
ATOM     11  C   UNL     1       3.778   0.930  -0.301  1.00  0.00     0.060 A 
ATOM     12  C   UNL     1       2.527   0.309  -0.061  1.00  0.00     0.074 A 
ATOM     13  N   UNL     1       1.307   0.866  -0.188  1.00  0.00    -0.323 N 
ATOM     14  H   UNL     1      -0.807   1.851   0.068  1.00  0.00     0.164 HD
ATOM     15  H   UNL     1       1.184   1.754  -0.659  1.00  0.00     0.170 HD
ENDROOT
BRANCH   1  16
ATOM     16  C   UNL     1      -2.356   0.456  -0.228  1.00  0.00     0.038 C 
ATOM     17  C   UNL     1      -2.878  -0.450   0.862  1.00  0.00     0.030 C 
ATOM     18  C   UNL     1      -2.782  -0.955  -0.553  1.00  0.00     0.030 C 
ATOM     19  C   UNL     1      -3.295   1.546  -0.704  1.00  0.00     0.034 C 
ENDBRANCH   1  16
TORSDOF 1
