REMARK SMILES C=C1CC/C=C(\C)CC[C@@H]2[C@@H]1CC2(C)C
REMARK SMILES IDX 9 1 10 2 11 3 12 4 13 5 14 6 15 7 2 8 1 9 3 10 8 12 6 13
REMARK SMILES IDX 5 14 7 15 4 16
REMARK H PARENT
REMARK Flexibility Score:   15.900
ROOT
ATOM      1  C   UNL     1       0.044  -1.826  -0.762  1.00  0.00     0.009 C 
ENDROOT
BRANCH   1   2
ATOM      2  C   UNL     1      -0.694  -0.474  -0.599  1.00  0.00     0.002 C 
ATOM      3  C   UNL     1      -0.525   0.525   0.611  1.00  0.00     0.018 C 
ATOM      4  C   UNL     1      -2.047   0.823   0.470  1.00  0.00     0.015 C 
ATOM      5  C   UNL     1      -2.223  -0.568  -0.196  1.00  0.00    -0.031 C 
ATOM      6  C   UNL     1      -2.644  -1.636   0.819  1.00  0.00     0.011 C 
ATOM      7  C   UNL     1      -3.170  -0.557  -1.395  1.00  0.00     0.011 C 
BRANCH   3   8
ATOM      8  C   UNL     1       0.322   1.777   0.514  1.00  0.00    -0.074 C 
ATOM      9  C   UNL     1       0.379   2.548   1.615  1.00  0.00     0.008 C 
BRANCH   8  10
ATOM     10  C   UNL     1       1.048   2.194  -0.756  1.00  0.00     0.035 CG0
ATOM     11  G   UNL     1       2.442   1.552  -0.949  1.00  0.00     0.000 G0
ENDBRANCH   8  10
ENDBRANCH   3   8
ENDBRANCH   1   2
BRANCH   1  12
ATOM     12  C   UNL     1       1.368  -1.969   0.013  1.00  0.00     0.030 C 
BRANCH  12  13
ATOM     13  C   UNL     1       2.296  -0.776  -0.019  1.00  0.00    -0.077 C 
ATOM     14  C   UNL     1       2.263   0.070  -1.067  1.00  0.00    -0.028 C 
ATOM     15  C   UNL     1       3.009  -0.505   1.280  1.00  0.00     0.039 C 
BRANCH  14  16
ATOM     16  C   UNL     1       2.442   1.552  -0.949  1.00  0.00     0.032 CG0
ATOM     17  G   UNL     1       1.048   2.194  -0.756  1.00  0.00     0.000 G0
ENDBRANCH  14  16
ENDBRANCH  12  13
ENDBRANCH   1  12
TORSDOF 0
