REMARK SMILES CC(C)(O)c1coc(S(=O)(=O)NC(=O)Nc2c3c(cc4c2CCC4)CCC3)c1
REMARK SMILES IDX 5 1 6 2 7 3 8 4 28 5 2 6 1 7 3 8 4 9 9 11 10 12 11 13 12 14
REMARK SMILES IDX 13 15 14 16 15 17 16 20 21 21 17 22 20 23 22 24 18 25 27 26
REMARK SMILES IDX 19 27 24 28 23 29 25 30 26 31
REMARK H PARENT 4 10 12 18 15 19
ROOT
ATOM      1  C   UNL     1       5.409  -0.173   0.057  1.00  0.00     0.023 A 
ATOM      2  C   UNL     1       4.519   0.644   0.724  1.00  0.00     0.203 A 
ATOM      3  O   UNL     1       3.239   0.255   0.514  1.00  0.00    -0.451 OA
ATOM      4  C   UNL     1       3.262  -0.844  -0.321  1.00  0.00     0.238 A 
ATOM      5  C   UNL     1       4.588  -1.121  -0.622  1.00  0.00     0.071 A 
ENDROOT
BRANCH   1   6
ATOM      6  C   UNL     1       6.912  -0.079   0.020  1.00  0.00     0.087 C 
ATOM      7  C   UNL     1       7.366   0.923  -1.046  1.00  0.00     0.047 C 
ATOM      8  C   UNL     1       7.509   0.301   1.381  1.00  0.00     0.047 C 
BRANCH   6   9
ATOM      9  O   UNL     1       7.479  -1.346  -0.341  1.00  0.00    -0.386 OA
ATOM     10  H   UNL     1       7.185  -1.991   0.325  1.00  0.00     0.211 HD
ENDBRANCH   6   9
ENDBRANCH   1   6
BRANCH   4  11
ATOM     11  S   UNL     1       1.736  -1.652  -0.828  1.00  0.00     0.298 S 
ATOM     12  O   UNL     1       1.652  -2.791   0.059  1.00  0.00    -0.198 OA
ATOM     13  O   UNL     1       1.867  -1.759  -2.263  1.00  0.00    -0.198 OA
BRANCH  11  14
ATOM     14  N   UNL     1       0.539  -0.559  -0.437  1.00  0.00    -0.228 N 
ATOM     15  C   UNL     1      -0.806  -0.838  -0.661  1.00  0.00     0.333 C 
ATOM     16  O   UNL     1      -1.173  -1.807  -1.298  1.00  0.00    -0.247 OA
ATOM     17  N   UNL     1      -1.598   0.146  -0.132  1.00  0.00    -0.307 N 
ATOM     18  H   UNL     1       0.791   0.059   0.324  1.00  0.00     0.185 HD
ATOM     19  H   UNL     1      -1.142   1.043  -0.097  1.00  0.00     0.171 HD
BRANCH  17  20
ATOM     20  C   UNL     1      -3.004   0.159  -0.112  1.00  0.00     0.049 A 
ATOM     21  C   UNL     1      -3.812  -0.943   0.169  1.00  0.00    -0.021 A 
ATOM     22  C   UNL     1      -3.657   1.379  -0.313  1.00  0.00    -0.021 A 
ATOM     23  C   UNL     1      -5.224  -0.818   0.193  1.00  0.00    -0.042 A 
ATOM     24  C   UNL     1      -3.447  -2.323   0.647  1.00  0.00     0.038 C 
ATOM     25  C   UNL     1      -5.064   1.480  -0.304  1.00  0.00    -0.042 A 
ATOM     26  C   UNL     1      -3.063   2.719  -0.650  1.00  0.00     0.038 C 
ATOM     27  C   UNL     1      -5.869   0.384  -0.058  1.00  0.00     0.008 A 
ATOM     28  C   UNL     1      -5.885  -2.100   0.602  1.00  0.00     0.036 C 
ATOM     29  C   UNL     1      -4.747  -3.100   0.408  1.00  0.00     0.010 C 
ATOM     30  C   UNL     1      -5.513   2.871  -0.631  1.00  0.00     0.036 C 
ATOM     31  C   UNL     1      -4.233   3.667  -0.363  1.00  0.00     0.010 C 
ENDBRANCH  17  20
ENDBRANCH  11  14
ENDBRANCH   4  11
TORSDOF 5
