REMARK SMILES N=C(N)c1ccc(/N=N/Nc2ccc(C(=N)N)cc2)cc1
REMARK SMILES IDX 8 1 9 2 7 3 4 4 5 5 21 6 6 7 20 8 2 9 1 10 3 11 10 15 11 17
REMARK SMILES IDX 12 18 19 19 13 20 18 21 14 22 15 23 16 24 17 25
REMARK H PARENT 1 12 3 13 3 14 10 16 16 26 17 27 17 28
ROOT
ATOM      1  N   UNL     1      -0.890  -1.426  -1.109  1.00  0.00    -0.133 NA
ATOM      2  N   UNL     1      -0.090  -0.914  -0.302  1.00  0.00    -0.069 NA
ENDROOT
BRANCH   1   3
ATOM      3  C   UNL     1      -2.157  -0.838  -0.956  1.00  0.00     0.087 A 
ATOM      4  C   UNL     1      -4.708   0.300  -0.695  1.00  0.00     0.016 A 
ATOM      5  C   UNL     1      -4.326  -0.753   0.141  1.00  0.00     0.014 A 
ATOM      6  C   UNL     1      -3.824   0.780  -1.667  1.00  0.00     0.014 A 
ATOM      7  C   UNL     1      -3.055  -1.319   0.006  1.00  0.00     0.031 A 
ATOM      8  C   UNL     1      -2.555   0.208  -1.798  1.00  0.00     0.031 A 
BRANCH   4   9
ATOM      9  C   UNL     1      -6.056   0.912  -0.565  1.00  0.00     0.122 C 
ATOM     10  N   UNL     1      -6.234   2.194  -0.615  1.00  0.00    -0.284 NA
ATOM     11  N   UNL     1      -7.159   0.139  -0.386  1.00  0.00    -0.384 N 
ATOM     12  H   UNL     1      -5.342   2.687  -0.725  1.00  0.00     0.189 HD
ATOM     13  H   UNL     1      -7.068  -0.771   0.044  1.00  0.00     0.158 HD
ATOM     14  H   UNL     1      -7.967   0.673  -0.084  1.00  0.00     0.158 HD
ENDBRANCH   4   9
ENDBRANCH   1   3
BRANCH   2  15
ATOM     15  N   UNL     1       1.089  -1.535  -0.502  1.00  0.00    -0.260 N 
ATOM     16  H   UNL     1       1.162  -2.037  -1.380  1.00  0.00     0.192 HD
BRANCH  15  17
ATOM     17  C   UNL     1       2.271  -0.912  -0.061  1.00  0.00     0.058 A 
ATOM     18  C   UNL     1       2.268   0.125   0.883  1.00  0.00     0.028 A 
ATOM     19  C   UNL     1       3.509  -1.418  -0.486  1.00  0.00     0.028 A 
ATOM     20  C   UNL     1       3.465   0.681   1.350  1.00  0.00     0.014 A 
ATOM     21  C   UNL     1       4.710  -0.867  -0.026  1.00  0.00     0.014 A 
ATOM     22  C   UNL     1       4.686   0.188   0.889  1.00  0.00     0.016 A 
BRANCH  22  23
ATOM     23  C   UNL     1       5.965   0.765   1.377  1.00  0.00     0.122 C 
ATOM     24  N   UNL     1       6.956   1.007   0.579  1.00  0.00    -0.284 NA
ATOM     25  N   UNL     1       6.140   1.062   2.692  1.00  0.00    -0.384 N 
ATOM     26  H   UNL     1       6.713   0.775  -0.389  1.00  0.00     0.189 HD
ATOM     27  H   UNL     1       6.944   1.657   2.857  1.00  0.00     0.158 HD
ATOM     28  H   UNL     1       5.335   1.266   3.268  1.00  0.00     0.158 HD
ENDBRANCH  22  23
ENDBRANCH  15  17
ENDBRANCH   2  15
TORSDOF 5
