REMARK SMILES BrC1C(Br)C(Br)C(Br)C(Br)C1Br
REMARK SMILES IDX 6 1 5 2 3 3 4 4 2 5 1 6 11 7 12 8 9 9 10 10 7 11 8 12
REMARK H PARENT
ROOT
ATOM      1  Br  UNL     1       1.899   1.215  -1.777  1.00  0.00    -0.087 Br
ATOM      2  C   UNL     1       1.405   0.569  -0.001  1.00  0.00     0.087 C 
ATOM      3  C   UNL     1       1.138  -0.942   0.049  1.00  0.00     0.087 C 
ATOM      4  Br  UNL     1       2.638  -2.030  -0.560  1.00  0.00    -0.087 Br
ATOM      5  C   UNL     1      -0.228  -1.427  -0.457  1.00  0.00     0.087 C 
ATOM      6  Br  UNL     1      -0.347  -1.530  -2.404  1.00  0.00    -0.087 Br
ATOM      7  C   UNL     1      -1.343  -0.589   0.182  1.00  0.00     0.087 C 
ATOM      8  Br  UNL     1      -3.142  -1.208  -0.249  1.00  0.00    -0.087 Br
ATOM      9  C   UNL     1      -1.184   0.937   0.138  1.00  0.00     0.087 C 
ATOM     10  Br  UNL     1      -1.662   1.722  -1.586  1.00  0.00    -0.087 Br
ATOM     11  C   UNL     1       0.221   1.324   0.619  1.00  0.00     0.087 C 
ATOM     12  Br  UNL     1       0.503   3.248   0.769  1.00  0.00    -0.087 Br
ENDROOT
TORSDOF 0
