REMARK SMILES CN1[C@@H]2CC[C@H]1C=C(c1sccc1Br)C2
REMARK SMILES IDX 1 1 2 2 3 3 4 4 5 5 6 6 7 7 8 8 15 9 9 10 10 11 13 12 11 13
REMARK SMILES IDX 12 14 14 15
REMARK H PARENT
ROOT
ATOM      1  C   UNL     1      -2.983  -1.620   0.566  1.00  0.00     0.106 C 
ATOM      2  N   UNL     1      -1.642  -1.057   0.450  1.00  0.00    -0.297 NA
ATOM      3  C   UNL     1      -1.553   0.337   0.928  1.00  0.00     0.061 C 
ATOM      4  C   UNL     1      -2.110   1.178  -0.235  1.00  0.00     0.021 C 
ATOM      5  C   UNL     1      -1.930   0.297  -1.477  1.00  0.00     0.025 C 
ATOM      6  C   UNL     1      -1.180  -0.928  -0.947  1.00  0.00     0.080 C 
ATOM      7  C   UNL     1       0.302  -0.615  -0.933  1.00  0.00    -0.003 C 
ATOM      8  C   UNL     1       0.862   0.113   0.060  1.00  0.00    -0.030 C 
ATOM      9  C   UNL     1      -0.047   0.625   1.177  1.00  0.00     0.056 C 
ENDROOT
BRANCH   8  10
ATOM     10  C   UNL     1       2.269   0.370  -0.016  1.00  0.00     0.044 A 
ATOM     11  S   UNL     1       2.820   1.997  -0.189  1.00  0.00    -0.143 S 
ATOM     12  C   UNL     1       3.353  -0.487   0.037  1.00  0.00     0.036 A 
ATOM     13  C   UNL     1       4.463   1.523  -0.210  1.00  0.00     0.066 A 
ATOM     14  C   UNL     1       4.610   0.162  -0.077  1.00  0.00     0.028 A 
ATOM     15  Br  UNL     1       3.271  -2.366   0.264  1.00  0.00    -0.049 Br
ENDBRANCH   8  10
TORSDOF 1
