REMARK SMILES C[N+]1(C)CCC(=C(c2ccccc2)c2ccccc2)CC1
REMARK SMILES IDX 1 1 2 2 3 3 4 4 5 5 6 6 7 7 20 8 21 9 8 10 9 11 13 12 10 13
REMARK SMILES IDX 12 14 11 15 14 16 15 17 19 18 16 19 18 20 17 21
REMARK H PARENT
ROOT
ATOM      1  C   UNL     1       3.786  -0.626   2.137  1.00  0.00     0.334 C 
ATOM      2  N   UNL     1       3.026  -0.532   0.813  1.00  0.00    -0.328 N 
ATOM      3  C   UNL     1       4.029  -0.757  -0.315  1.00  0.00     0.334 C 
ATOM      4  C   UNL     1       2.387   0.870   0.720  1.00  0.00     0.268 C 
ATOM      5  C   UNL     1       1.426   0.995  -0.468  1.00  0.00     0.093 C 
ATOM      6  C   UNL     1       0.353  -0.081  -0.421  1.00  0.00    -0.051 C 
ATOM      7  C   UNL     1      -0.983   0.167  -0.400  1.00  0.00    -0.011 C 
ATOM      8  C   UNL     1       0.971  -1.469  -0.381  1.00  0.00     0.093 C 
ATOM      9  C   UNL     1       1.927  -1.615   0.807  1.00  0.00     0.268 C 
ENDROOT
BRANCH   7  10
ATOM     10  C   UNL     1      -1.943  -0.960  -0.348  1.00  0.00    -0.018 A 
ATOM     11  C   UNL     1      -2.432  -1.418   0.883  1.00  0.00     0.009 A 
ATOM     12  C   UNL     1      -2.368  -1.579  -1.531  1.00  0.00     0.009 A 
ATOM     13  C   UNL     1      -3.328  -2.487   0.928  1.00  0.00     0.001 A 
ATOM     14  C   UNL     1      -3.263  -2.649  -1.482  1.00  0.00     0.001 A 
ATOM     15  C   UNL     1      -3.740  -3.103  -0.253  1.00  0.00     0.000 A 
ENDBRANCH   7  10
BRANCH   7  16
ATOM     16  C   UNL     1      -1.477   1.563  -0.436  1.00  0.00    -0.018 A 
ATOM     17  C   UNL     1      -1.755   2.248   0.754  1.00  0.00     0.009 A 
ATOM     18  C   UNL     1      -1.667   2.211  -1.664  1.00  0.00     0.009 A 
ATOM     19  C   UNL     1      -2.209   3.567   0.716  1.00  0.00     0.001 A 
ATOM     20  C   UNL     1      -2.120   3.531  -1.698  1.00  0.00     0.001 A 
ATOM     21  C   UNL     1      -2.388   4.208  -0.510  1.00  0.00     0.000 A 
ENDBRANCH   7  16
TORSDOF 2
