REMARK SMILES NC1=NC[C@@H]2c3ccccc3Cc3ccccc3N12
REMARK SMILES IDX 1 1 2 2 3 3 4 4 5 5 6 6 7 7 8 8 9 9 10 10 11 11 12 12 13 13
REMARK SMILES IDX 14 14 15 15 16 16 17 17 18 18 19 19
REMARK H PARENT 1 20 1 21
ROOT
ATOM      1  N   UNL     1       3.324  -1.489   0.794  1.00  0.00    -0.369 N 
ATOM      2  C   UNL     1       1.999  -1.755   0.773  1.00  0.00     0.196 C 
ATOM      3  N   UNL     1       1.560  -2.920   1.180  1.00  0.00    -0.250 NA
ATOM      4  C   UNL     1       0.085  -2.784   1.011  1.00  0.00     0.176 C 
ATOM      5  C   UNL     1      -0.202  -1.263   0.983  1.00  0.00     0.143 C 
ATOM      6  C   UNL     1      -1.466  -0.802   0.286  1.00  0.00    -0.020 A 
ATOM      7  C   UNL     1      -2.392  -1.679  -0.301  1.00  0.00     0.006 A 
ATOM      8  C   UNL     1      -3.569  -1.198  -0.881  1.00  0.00     0.000 A 
ATOM      9  C   UNL     1      -3.847   0.164  -0.878  1.00  0.00     0.000 A 
ATOM     10  C   UNL     1      -2.949   1.052  -0.293  1.00  0.00     0.004 A 
ATOM     11  C   UNL     1      -1.766   0.578   0.295  1.00  0.00    -0.038 A 
ATOM     12  C   UNL     1      -0.772   1.546   0.894  1.00  0.00     0.073 C 
ATOM     13  C   UNL     1       0.493   1.604   0.070  1.00  0.00    -0.020 A 
ATOM     14  C   UNL     1       0.818   2.844  -0.526  1.00  0.00     0.006 A 
ATOM     15  C   UNL     1       1.929   2.979  -1.350  1.00  0.00     0.000 A 
ATOM     16  C   UNL     1       2.720   1.872  -1.605  1.00  0.00     0.002 A 
ATOM     17  C   UNL     1       2.407   0.644  -1.014  1.00  0.00     0.027 A 
ATOM     18  C   UNL     1       1.312   0.470  -0.138  1.00  0.00     0.048 A 
ATOM     19  N   UNL     1       1.080  -0.786   0.442  1.00  0.00    -0.303 N 
ATOM     20  H   UNL     1       3.543  -0.564   1.141  1.00  0.00     0.159 HD
ATOM     21  H   UNL     1       3.829  -2.214   1.291  1.00  0.00     0.159 HD
ENDROOT
TORSDOF 0
