REMARK SMILES Cc1cc(Nc2ncnc3ccc(NC4=NC(C)(C)CO4)cc23)ccc1Oc1ccn2ncnc2c1
REMARK SMILES IDX 5 1 4 3 2 4 3 5 26 6 25 7 24 8 1 9 27 10 28 11 29 12 36 13
REMARK SMILES IDX 30 14 35 15 31 16 34 17 32 18 33 19 6 20 7 21 23 22 8 23
REMARK SMILES IDX 22 24 10 25 9 26 13 27 11 28 12 29 14 30 15 31 16 32 21 33
REMARK SMILES IDX 17 34 20 35 18 37 19 38
REMARK H PARENT 5 2 14 36
ROOT
ATOM      1  N   UNL     1       0.415   0.215  -0.203  1.00  0.00    -0.340 N 
ATOM      2  H   UNL     1       0.046   1.101  -0.532  1.00  0.00     0.168 HD
ENDROOT
BRANCH   1   3
ATOM      3  C   UNL     1       1.767   0.047  -0.580  1.00  0.00     0.040 A 
ATOM      4  C   UNL     1       3.892  -1.179  -0.504  1.00  0.00    -0.006 A 
ATOM      5  C   UNL     1       2.571  -0.981  -0.065  1.00  0.00     0.033 A 
ATOM      6  C   UNL     1       4.411  -0.308  -1.468  1.00  0.00     0.130 A 
ATOM      7  C   UNL     1       3.608   0.678  -2.043  1.00  0.00     0.049 A 
ATOM      8  C   UNL     1       2.293   0.847  -1.605  1.00  0.00     0.030 A 
ATOM      9  C   UNL     1       4.712  -2.288   0.089  1.00  0.00     0.048 C 
BRANCH   6  10
ATOM     10  O   UNL     1       5.693  -0.436  -1.942  1.00  0.00    -0.457 OA
BRANCH  10  11
ATOM     11  C   UNL     1       6.763   0.011  -1.167  1.00  0.00     0.132 C 
ATOM     12  C   UNL     1       6.554   0.993  -0.098  1.00  0.00     0.067 C 
ATOM     13  C   UNL     1       8.001  -0.445  -1.445  1.00  0.00     0.096 C 
ATOM     14  C   UNL     1       7.611   1.414   0.620  1.00  0.00     0.119 C 
ATOM     15  C   UNL     1       9.117  -0.001  -0.684  1.00  0.00     0.158 A 
ATOM     16  N   UNL     1       8.883   0.923   0.336  1.00  0.00    -0.221 N 
ATOM     17  N   UNL     1      10.397  -0.294  -0.742  1.00  0.00    -0.215 NA
ATOM     18  N   UNL     1      10.059   1.220   0.938  1.00  0.00    -0.155 NA
ATOM     19  C   UNL     1      10.924   0.468   0.257  1.00  0.00     0.247 A 
ENDBRANCH  10  11
ENDBRANCH   6  10
ENDBRANCH   1   3
BRANCH   1  20
ATOM     20  C   UNL     1      -0.187  -0.080   1.052  1.00  0.00     0.141 A 
ATOM     21  N   UNL     1       0.597  -0.279   2.127  1.00  0.00    -0.219 NA
ATOM     22  C   UNL     1      -1.594  -0.126   1.134  1.00  0.00     0.045 A 
ATOM     23  C   UNL     1      -0.021  -0.501   3.290  1.00  0.00     0.224 A 
ATOM     24  C   UNL     1      -2.487   0.032   0.037  1.00  0.00     0.040 A 
ATOM     25  C   UNL     1      -2.113  -0.360   2.411  1.00  0.00     0.076 A 
ATOM     26  N   UNL     1      -1.342  -0.543   3.486  1.00  0.00    -0.236 NA
ATOM     27  C   UNL     1      -3.880  -0.023   0.192  1.00  0.00     0.043 A 
ATOM     28  C   UNL     1      -3.490  -0.401   2.563  1.00  0.00     0.031 A 
ATOM     29  C   UNL     1      -4.365  -0.230   1.481  1.00  0.00     0.028 A 
BRANCH  27  30
ATOM     30  N   UNL     1      -4.693   0.156  -0.933  1.00  0.00    -0.310 N 
ATOM     31  C   UNL     1      -6.047   0.189  -1.027  1.00  0.00     0.289 C 
ATOM     32  N   UNL     1      -6.965   0.123  -0.122  1.00  0.00    -0.225 NA
ATOM     33  O   UNL     1      -6.440   0.311  -2.326  1.00  0.00    -0.462 OA
ATOM     34  C   UNL     1      -8.229   0.299  -0.857  1.00  0.00     0.095 C 
ATOM     35  C   UNL     1      -7.843   0.074  -2.309  1.00  0.00     0.263 C 
ATOM     36  H   UNL     1      -4.221   0.208  -1.824  1.00  0.00     0.171 HD
ATOM     37  C   UNL     1      -9.250  -0.722  -0.367  1.00  0.00     0.040 C 
ATOM     38  C   UNL     1      -8.733   1.724  -0.612  1.00  0.00     0.040 C 
ENDBRANCH  27  30
ENDBRANCH   1  20
TORSDOF 5
