REMARK SMILES CC(C)c1cc(-c2n[nH]c(=O)n2-c2ccc3c(ccn3C)c2)c(O)cc1O
REMARK SMILES IDX 4 1 5 2 6 3 23 4 25 5 26 6 2 7 1 8 3 9 27 10 7 12 8 13 12 14
REMARK SMILES IDX 9 15 10 16 11 17 13 19 14 20 22 21 15 22 17 23 16 24 18 25
REMARK SMILES IDX 20 26 19 27 21 28 24 29
REMARK H PARENT 27 11 9 18 24 30
ROOT
ATOM      1  C   UNL     1      -3.038   0.317  -0.165  1.00  0.00    -0.003 A 
ATOM      2  C   UNL     1      -2.337  -0.830   0.250  1.00  0.00     0.023 A 
ATOM      3  C   UNL     1      -1.302  -0.739   1.190  1.00  0.00     0.062 A 
ATOM      4  C   UNL     1      -0.988   0.492   1.768  1.00  0.00     0.130 A 
ATOM      5  C   UNL     1      -1.669   1.641   1.371  1.00  0.00     0.093 A 
ATOM      6  C   UNL     1      -2.680   1.548   0.409  1.00  0.00     0.122 A 
ENDROOT
BRANCH   1   7
ATOM      7  C   UNL     1      -4.138   0.158  -1.203  1.00  0.00     0.017 C 
ATOM      8  C   UNL     1      -5.516   0.545  -0.659  1.00  0.00     0.012 C 
ATOM      9  C   UNL     1      -3.823   0.899  -2.504  1.00  0.00     0.012 C 
ENDBRANCH   1   7
BRANCH   6  10
ATOM     10  O   UNL     1      -3.339   2.680   0.021  1.00  0.00    -0.508 OA
ATOM     11  H   UNL     1      -3.001   3.442   0.519  1.00  0.00     0.293 HD
ENDBRANCH   6  10
BRANCH   3  12
ATOM     12  C   UNL     1      -0.608  -1.977   1.575  1.00  0.00     0.172 C 
ATOM     13  N   UNL     1      -1.273  -2.989   2.068  1.00  0.00    -0.152 NA
ATOM     14  N   UNL     1       0.751  -2.164   1.502  1.00  0.00    -0.243 N 
ATOM     15  N   UNL     1      -0.308  -3.890   2.391  1.00  0.00    -0.226 N 
ATOM     16  C   UNL     1       0.958  -3.408   2.073  1.00  0.00     0.348 C 
ATOM     17  O   UNL     1       1.988  -4.039   2.256  1.00  0.00    -0.246 OA
ATOM     18  H   UNL     1      -0.508  -4.784   2.815  1.00  0.00     0.195 HD
BRANCH  14  19
ATOM     19  C   UNL     1       1.766  -1.372   0.902  1.00  0.00     0.053 A 
ATOM     20  C   UNL     1       3.090  -1.454   1.355  1.00  0.00     0.029 A 
ATOM     21  C   UNL     1       1.489  -0.510  -0.174  1.00  0.00     0.037 A 
ATOM     22  C   UNL     1       4.125  -0.690   0.797  1.00  0.00     0.029 A 
ATOM     23  C   UNL     1       2.508   0.277  -0.754  1.00  0.00     0.002 A 
ATOM     24  C   UNL     1       3.807   0.174  -0.257  1.00  0.00     0.048 A 
ATOM     25  C   UNL     1       2.536   1.218  -1.819  1.00  0.00     0.028 A 
ATOM     26  N   UNL     1       4.590   1.033  -0.999  1.00  0.00    -0.351 N 
ATOM     27  C   UNL     1       3.830   1.671  -1.944  1.00  0.00     0.086 A 
ATOM     28  C   UNL     1       6.011   1.227  -0.815  1.00  0.00     0.149 C 
ENDBRANCH  14  19
ENDBRANCH   3  12
BRANCH   4  29
ATOM     29  O   UNL     1      -0.023   0.568   2.732  1.00  0.00    -0.507 OA
ATOM     30  H   UNL     1       0.147   1.498   2.956  1.00  0.00     0.293 HD
ENDBRANCH   4  29
TORSDOF 5
