REMARK SMILES CCN(CC)C(=S)SSC(=S)N(CC)CC
REMARK SMILES IDX 8 1 6 2 3 3 7 4 2 5 1 6 4 7 5 8 9 9 10 10 11 11 12 12 13 13
REMARK SMILES IDX 14 14 15 15 16 16
REMARK H PARENT
ROOT
ATOM      1  S   UNL     1       0.234  -1.118  -0.698  1.00  0.00    -0.020 SA
ENDROOT
BRANCH   1   2
ATOM      2  C   UNL     1      -0.844  -1.039   0.710  1.00  0.00     0.147 C 
ATOM      3  N   UNL     1      -2.215  -1.317   0.514  1.00  0.00    -0.357 N 
ATOM      4  S   UNL     1      -0.119  -0.702   2.199  1.00  0.00    -0.052 S 
BRANCH   3   5
ATOM      5  C   UNL     1      -2.779  -1.857  -0.739  1.00  0.00     0.114 C 
ATOM      6  C   UNL     1      -3.625  -0.843  -1.498  1.00  0.00     0.027 C 
ENDBRANCH   3   5
BRANCH   3   7
ATOM      7  C   UNL     1      -3.178  -1.207   1.627  1.00  0.00     0.114 C 
ATOM      8  C   UNL     1      -3.341  -2.513   2.393  1.00  0.00     0.027 C 
ENDBRANCH   3   7
ENDBRANCH   1   2
BRANCH   1   9
ATOM      9  S   UNL     1      -0.149   0.660  -1.667  1.00  0.00    -0.020 SA
BRANCH   9  10
ATOM     10  C   UNL     1       0.767   1.838  -0.707  1.00  0.00     0.147 C 
ATOM     11  S   UNL     1      -0.139   2.917   0.226  1.00  0.00    -0.052 S 
ATOM     12  N   UNL     1       2.174   1.840  -0.821  1.00  0.00    -0.357 N 
BRANCH  12  13
ATOM     13  C   UNL     1       3.007   2.685   0.058  1.00  0.00     0.114 C 
ATOM     14  C   UNL     1       3.220   2.074   1.437  1.00  0.00     0.027 C 
ENDBRANCH  12  13
BRANCH  12  15
ATOM     15  C   UNL     1       2.919   1.107  -1.863  1.00  0.00     0.114 C 
ATOM     16  C   UNL     1       3.833   0.023  -1.310  1.00  0.00     0.027 C 
ENDBRANCH  12  15
ENDBRANCH   9  10
ENDBRANCH   1   9
TORSDOF 7
