REMARK SMILES CSC(=N)C(C#N)C(C#N)C(=N)SC
REMARK SMILES IDX 5 1 6 2 7 3 3 4 4 5 2 7 1 8 8 9 9 10 10 11 11 12 12 13 13 15
REMARK SMILES IDX 14 16
REMARK H PARENT 4 6 12 14
ROOT
ATOM      1  C   UNL     1      -0.836   0.597  -0.130  1.00  0.00     0.171 C 
ATOM      2  C   UNL     1      -1.033   0.699   1.326  1.00  0.00     0.074 C 
ATOM      3  N   UNL     1      -1.218   0.852   2.461  1.00  0.00    -0.198 NA
ENDROOT
BRANCH   1   4
ATOM      4  C   UNL     1      -1.490  -0.624  -0.742  1.00  0.00     0.083 C 
ATOM      5  N   UNL     1      -1.050  -1.150  -1.838  1.00  0.00    -0.297 NA
ATOM      6  H   UNL     1      -1.662  -1.952  -2.056  1.00  0.00     0.188 HD
BRANCH   4   7
ATOM      7  S   UNL     1      -2.948  -1.324  -0.086  1.00  0.00    -0.114 SA
ATOM      8  C   UNL     1      -4.117  -0.002  -0.470  1.00  0.00     0.092 C 
ENDBRANCH   4   7
ENDBRANCH   1   4
BRANCH   1   9
ATOM      9  C   UNL     1       0.646   0.675  -0.538  1.00  0.00     0.171 C 
ATOM     10  C   UNL     1       1.249   1.932  -0.073  1.00  0.00     0.074 C 
ATOM     11  N   UNL     1       1.715   2.938   0.270  1.00  0.00    -0.198 NA
BRANCH   9  12
ATOM     12  C   UNL     1       1.465  -0.500  -0.052  1.00  0.00     0.083 C 
ATOM     13  N   UNL     1       1.081  -1.291   0.891  1.00  0.00    -0.297 NA
ATOM     14  H   UNL     1       1.793  -2.025   1.007  1.00  0.00     0.188 HD
BRANCH  12  15
ATOM     15  S   UNL     1       2.998  -0.822  -0.827  1.00  0.00    -0.114 SA
ATOM     16  C   UNL     1       4.109  -0.313   0.507  1.00  0.00     0.092 C 
ENDBRANCH  12  15
ENDBRANCH   9  12
ENDBRANCH   1   9
TORSDOF 5
