REMARK SMILES N=C(NCCc1ccc(I)cc1)SCCCc1cnc[nH]1
REMARK SMILES IDX 13 1 2 2 1 3 3 4 4 7 5 8 6 9 7 10 12 11 8 12 11 13 9 14
REMARK SMILES IDX 10 15 14 16 15 17 16 18 17 19 18 20 21 21 19 22 20 23
REMARK H PARENT 1 5 3 6 21 24
ROOT
ATOM      1  S   UNL     1      -0.247   0.235  -1.543  1.00  0.00    -0.089 SA
ENDROOT
BRANCH   1   2
ATOM      2  C   UNL     1       0.475  -1.343  -1.428  1.00  0.00     0.153 C 
ATOM      3  N   UNL     1       0.754  -1.955  -2.520  1.00  0.00    -0.279 NA
ATOM      4  N   UNL     1       0.700  -1.795  -0.171  1.00  0.00    -0.365 N 
ATOM      5  H   UNL     1       0.474  -1.339  -3.291  1.00  0.00     0.190 HD
ATOM      6  H   UNL     1       0.712  -1.067   0.536  1.00  0.00     0.162 HD
BRANCH   4   7
ATOM      7  C   UNL     1       1.604  -2.903   0.099  1.00  0.00     0.119 C 
BRANCH   7   8
ATOM      8  C   UNL     1       3.076  -2.495  -0.042  1.00  0.00     0.056 C 
BRANCH   8   9
ATOM      9  C   UNL     1       3.493  -1.430   0.948  1.00  0.00    -0.046 A 
ATOM     10  C   UNL     1       3.768  -1.765   2.281  1.00  0.00     0.005 A 
ATOM     11  C   UNL     1       3.585  -0.090   0.549  1.00  0.00     0.005 A 
ATOM     12  C   UNL     1       4.130  -0.776   3.199  1.00  0.00     0.015 A 
ATOM     13  C   UNL     1       3.945   0.900   1.465  1.00  0.00     0.015 A 
ATOM     14  C   UNL     1       4.216   0.553   2.787  1.00  0.00     0.013 A 
ATOM     15  I   UNL     1       4.751   2.025   4.153  1.00  0.00    -0.044 I 
ENDBRANCH   8   9
ENDBRANCH   7   8
ENDBRANCH   4   7
ENDBRANCH   1   2
BRANCH   1  16
ATOM     16  C   UNL     1      -1.991  -0.279  -1.442  1.00  0.00     0.078 C 
BRANCH  16  17
ATOM     17  C   UNL     1      -2.948   0.910  -1.520  1.00  0.00     0.018 C 
BRANCH  17  18
ATOM     18  C   UNL     1      -2.893   1.817  -0.286  1.00  0.00     0.056 C 
BRANCH  18  19
ATOM     19  C   UNL     1      -3.905   2.905  -0.371  1.00  0.00     0.034 A 
ATOM     20  C   UNL     1      -5.207   2.993   0.071  1.00  0.00     0.134 A 
ATOM     21  N   UNL     1      -3.660   4.117  -0.968  1.00  0.00    -0.348 N 
ATOM     22  N   UNL     1      -5.750   4.211  -0.244  1.00  0.00    -0.245 NA
ATOM     23  C   UNL     1      -4.798   4.865  -0.867  1.00  0.00     0.196 A 
ATOM     24  H   UNL     1      -2.797   4.409  -1.406  1.00  0.00     0.167 HD
ENDBRANCH  18  19
ENDBRANCH  17  18
ENDBRANCH  16  17
ENDBRANCH   1  16
TORSDOF 8
