REMARK SMILES C[C@@H](O)[C@H]1C(=O)N2C(C(=O)O)=C(SC3Cn4cnc[n+]4C3)[C@H](C)[C@H]12
REMARK SMILES IDX 4 1 5 2 6 3 7 4 8 5 12 6 22 7 23 8 24 9 2 10 1 11 3 12 9 14
REMARK SMILES IDX 10 15 11 16 13 18 14 19 15 20 21 21 16 22 20 23 17 24 19 25
REMARK SMILES IDX 18 26
REMARK H PARENT 3 13 11 17
ROOT
ATOM      1  C   UNL     1       3.287  -0.343   1.430  1.00  0.00     0.131 C 
ATOM      2  C   UNL     1       2.661   1.055   1.471  1.00  0.00     0.235 C 
ATOM      3  O   UNL     1       2.681   1.990   2.236  1.00  0.00    -0.274 OA
ATOM      4  N   UNL     1       1.919   0.814   0.342  1.00  0.00    -0.300 N 
ATOM      5  C   UNL     1       0.546   0.965   0.399  1.00  0.00     0.140 C 
ATOM      6  C   UNL     1      -0.089  -0.221   0.398  1.00  0.00     0.022 C 
ATOM      7  C   UNL     1       0.912  -1.364   0.399  1.00  0.00     0.049 C 
ATOM      8  C   UNL     1       0.856  -2.256   1.633  1.00  0.00     0.015 C 
ATOM      9  C   UNL     1       2.264  -0.632   0.280  1.00  0.00     0.114 C 
ENDROOT
BRANCH   1  10
ATOM     10  C   UNL     1       4.778  -0.423   1.128  1.00  0.00     0.125 C 
ATOM     11  C   UNL     1       5.259   0.543   0.055  1.00  0.00     0.039 C 
BRANCH  10  12
ATOM     12  O   UNL     1       5.504  -0.186   2.332  1.00  0.00    -0.393 OA
ATOM     13  H   UNL     1       5.430   0.758   2.567  1.00  0.00     0.210 HD
ENDBRANCH  10  12
ENDBRANCH   1  10
BRANCH   5  14
ATOM     14  C   UNL     1       0.024   2.353   0.460  1.00  0.00     0.353 C 
ATOM     15  O   UNL     1       0.604   3.346   0.057  1.00  0.00    -0.245 OA
BRANCH  14  16
ATOM     16  O   UNL     1      -1.205   2.473   0.993  1.00  0.00    -0.477 OA
ATOM     17  H   UNL     1      -1.251   3.448   1.133  1.00  0.00     0.297 HD
ENDBRANCH  14  16
ENDBRANCH   5  14
BRANCH   6  18
ATOM     18  S   UNL     1      -1.780  -0.557   0.449  1.00  0.00    -0.118 SA
BRANCH  18  19
ATOM     19  C   UNL     1      -2.428   0.367  -1.003  1.00  0.00     0.119 C 
ATOM     20  C   UNL     1      -2.959  -0.645  -2.081  1.00  0.00     0.188 C 
ATOM     21  C   UNL     1      -3.687   1.180  -0.541  1.00  0.00     0.284 C 
ATOM     22  N   UNL     1      -4.346  -0.779  -1.728  1.00  0.00    -0.180 N 
ATOM     23  N   UNL     1      -4.758   0.267  -0.826  1.00  0.00    -0.155 N 
ATOM     24  C   UNL     1      -5.438  -1.603  -1.883  1.00  0.00     0.380 A 
ATOM     25  C   UNL     1      -6.068  -0.008  -0.510  1.00  0.00     0.474 A 
ATOM     26  N   UNL     1      -6.531  -1.152  -1.152  1.00  0.00    -0.034 NA
ENDBRANCH  18  19
ENDBRANCH   6  18
TORSDOF 6
