REMARK SMILES N=C(N)Nc1ccc2[nH]c3c(c2c1)C[C@@]1(O)[C@H]2Cc4ccc(O)c5c4[C@@]1(CCN2CC1CC1)[C@H]3O5
REMARK SMILES IDX 5 1 6 2 7 3 8 4 9 5 10 6 11 7 12 8 13 9 14 10 15 11 17 12
REMARK SMILES IDX 18 13 19 14 20 15 21 16 22 17 24 18 25 19 26 20 27 21 28 22
REMARK SMILES IDX 29 23 34 24 35 25 4 27 1 28 2 29 3 30 16 35 30 37 31 38
REMARK SMILES IDX 32 39 33 40 23 41
REMARK H PARENT 9 26 1 31 3 32 3 33 4 34 16 36 23 42
ROOT
ATOM      1  C   UNL     1      -5.016   0.424  -1.060  1.00  0.00     0.042 A 
ATOM      2  C   UNL     1      -5.476  -0.880  -1.311  1.00  0.00     0.028 A 
ATOM      3  C   UNL     1      -4.635  -2.001  -1.253  1.00  0.00     0.029 A 
ATOM      4  C   UNL     1      -3.289  -1.780  -0.954  1.00  0.00     0.046 A 
ATOM      5  N   UNL     1      -2.250  -2.674  -0.818  1.00  0.00    -0.355 N 
ATOM      6  C   UNL     1      -1.094  -1.999  -0.546  1.00  0.00     0.061 A 
ATOM      7  C   UNL     1      -1.388  -0.653  -0.450  1.00  0.00    -0.012 A 
ATOM      8  C   UNL     1      -2.777  -0.503  -0.721  1.00  0.00     0.005 A 
ATOM      9  C   UNL     1      -3.653   0.603  -0.785  1.00  0.00     0.036 A 
ATOM     10  C   UNL     1      -0.368   0.381  -0.082  1.00  0.00     0.076 C 
ATOM     11  C   UNL     1       1.076  -0.128  -0.389  1.00  0.00     0.098 C 
ATOM     12  C   UNL     1       2.184   0.688   0.392  1.00  0.00     0.094 C 
ATOM     13  C   UNL     1       1.993   0.598   1.945  1.00  0.00     0.058 C 
ATOM     14  C   UNL     1       1.572  -0.770   2.423  1.00  0.00    -0.038 A 
ATOM     15  C   UNL     1       1.393  -1.101   3.768  1.00  0.00     0.008 A 
ATOM     16  C   UNL     1       0.839  -2.348   4.130  1.00  0.00     0.050 A 
ATOM     17  C   UNL     1       0.419  -3.254   3.149  1.00  0.00     0.158 A 
ATOM     18  C   UNL     1       0.593  -2.914   1.826  1.00  0.00     0.166 A 
ATOM     19  C   UNL     1       1.215  -1.728   1.487  1.00  0.00     0.015 A 
ATOM     20  C   UNL     1       1.330  -1.604  -0.001  1.00  0.00     0.074 C 
ATOM     21  C   UNL     1       2.739  -2.071  -0.450  1.00  0.00     0.035 C 
ATOM     22  C   UNL     1       3.704  -0.917  -0.769  1.00  0.00     0.086 C 
ATOM     23  N   UNL     1       3.572   0.213   0.139  1.00  0.00    -0.297 NA
ATOM     24  C   UNL     1       0.245  -2.646  -0.365  1.00  0.00     0.234 C 
ATOM     25  O   UNL     1       0.139  -3.606   0.727  1.00  0.00    -0.479 OA
ATOM     26  H   UNL     1      -2.336  -3.680  -0.887  1.00  0.00     0.166 HD
ENDROOT
BRANCH   1  27
ATOM     27  N   UNL     1      -5.932   1.491  -1.192  1.00  0.00    -0.327 N 
ATOM     28  N   UNL     1      -4.790   3.357  -0.249  1.00  0.00    -0.269 NA
ATOM     29  C   UNL     1      -5.789   2.794  -0.827  1.00  0.00     0.190 C 
ATOM     30  N   UNL     1      -6.892   3.513  -1.156  1.00  0.00    -0.370 N 
ATOM     31  H   UNL     1      -4.989   4.341  -0.073  1.00  0.00     0.191 HD
ATOM     32  H   UNL     1      -6.767   4.516  -1.101  1.00  0.00     0.159 HD
ATOM     33  H   UNL     1      -7.268   3.261  -2.064  1.00  0.00     0.159 HD
ATOM     34  H   UNL     1      -6.893   1.180  -1.208  1.00  0.00     0.170 HD
ENDBRANCH   1  27
BRANCH  11  35
ATOM     35  O   UNL     1       1.269   0.049  -1.815  1.00  0.00    -0.387 OA
ATOM     36  H   UNL     1       0.463  -0.265  -2.264  1.00  0.00     0.211 HD
ENDBRANCH  11  35
BRANCH  23  37
ATOM     37  C   UNL     1       4.552   1.276  -0.076  1.00  0.00     0.088 C 
BRANCH  37  38
ATOM     38  C   UNL     1       4.347   2.081  -1.327  1.00  0.00     0.003 C 
ATOM     39  C   UNL     1       3.706   3.447  -1.286  1.00  0.00     0.005 C 
ATOM     40  C   UNL     1       5.178   3.322  -1.552  1.00  0.00     0.005 C 
ENDBRANCH  37  38
ENDBRANCH  23  37
BRANCH  17  41
ATOM     41  O   UNL     1      -0.176  -4.433   3.478  1.00  0.00    -0.504 OA
ATOM     42  H   UNL     1      -0.248  -4.484   4.444  1.00  0.00     0.293 HD
ENDBRANCH  17  41
TORSDOF 5
