REMARK SMILES O=c1c2c(c1=O)N(CCP(=O)(O)O)CCCN2
REMARK SMILES IDX 7 1 4 2 1 3 2 4 3 5 5 6 6 7 17 8 16 10 15 11 8 13 9 14 10 15
REMARK SMILES IDX 11 16 12 17 13 19 14 21
REMARK H PARENT 17 9 12 18 13 20
REMARK Flexibility Score:   20.900
ROOT
ATOM      1  N   UNL     1      -0.209   0.250  -0.182  1.00  0.00    -0.366 N 
ENDROOT
BRANCH   1   2
ATOM      2  C   UNL     1      -0.866   0.500   0.939  1.00  0.00     0.117 C 
ATOM      3  O   UNL     1      -2.426   1.128   3.739  1.00  0.00    -0.283 OA
ATOM      4  C   UNL     1      -1.858   0.885   2.703  1.00  0.00     0.253 C 
ATOM      5  C   UNL     1      -2.186   0.627   1.284  1.00  0.00     0.114 C 
ATOM      6  C   UNL     1      -0.425   0.724   2.339  1.00  0.00     0.253 C 
ATOM      7  O   UNL     1       0.596   0.771   2.979  1.00  0.00    -0.283 OA
BRANCH   5   8
ATOM      8  N   UNL     1      -3.333   0.549   0.648  1.00  0.00    -0.380 N 
ATOM      9  H   UNL     1      -4.209   0.811   1.102  1.00  0.00     0.160 HD
BRANCH   8  10
ATOM     10  C   UNL     1      -3.392   0.493  -0.811  1.00  0.00     0.115 C 
BRANCH  10  11
ATOM     11  C   UNL     1      -2.313  -0.406  -1.433  1.00  0.00     0.042 CG0
ATOM     12  G   UNL     1      -0.914   0.233  -1.479  1.00  0.00     0.000 G0
ENDBRANCH  10  11
ENDBRANCH   8  10
ENDBRANCH   5   8
ENDBRANCH   1   2
BRANCH   1  13
ATOM     13  C   UNL     1       1.264   0.293  -0.246  1.00  0.00     0.129 C 
BRANCH  13  14
ATOM     14  C   UNL     1       1.852  -1.063   0.097  1.00  0.00     0.150 C 
BRANCH  14  15
ATOM     15  P   UNL     1       3.612  -1.116  -0.084  1.00  0.00     0.327 P 
ATOM     16  O   UNL     1       4.318  -2.382   0.265  1.00  0.00    -0.260 OA
BRANCH  15  17
ATOM     17  O   UNL     1       4.202   0.136   0.719  1.00  0.00    -0.324 OA
ATOM     18  H   UNL     1       5.163   0.075   0.875  1.00  0.00     0.221 HD
ENDBRANCH  15  17
BRANCH  15  19
ATOM     19  O   UNL     1       3.923  -0.676  -1.594  1.00  0.00    -0.324 OA
ATOM     20  H   UNL     1       4.846  -0.858  -1.852  1.00  0.00     0.221 HD
ENDBRANCH  15  19
ENDBRANCH  14  15
ENDBRANCH  13  14
ENDBRANCH   1  13
BRANCH   1  21
ATOM     21  C   UNL     1      -0.914   0.233  -1.479  1.00  0.00     0.118 CG0
ATOM     22  G   UNL     1      -2.313  -0.406  -1.433  1.00  0.00     0.000 G0
ENDBRANCH   1  21
TORSDOF 5
