REMARK SMILES O=C(O)c1cnn(-c2nc3cc(Cl)c(OC(F)(F)F)cc3[nH]2)c1
REMARK SMILES IDX 8 1 9 2 10 3 11 4 12 5 13 6 14 7 20 8 21 9 22 10 7 12 4 13
REMARK SMILES IDX 5 14 23 15 6 16 2 17 1 18 3 19 15 21 16 22 17 23 18 24 19 25
REMARK H PARENT 22 11 3 20
ROOT
ATOM      1  C   UNL     1      -0.946  -0.165  -0.401  1.00  0.00     0.229 A 
ATOM      2  N   UNL     1      -0.474  -0.677  -1.521  1.00  0.00    -0.211 NA
ATOM      3  C   UNL     1       0.861  -0.365  -1.538  1.00  0.00     0.092 A 
ATOM      4  C   UNL     1       1.834  -0.660  -2.503  1.00  0.00     0.055 A 
ATOM      5  C   UNL     1       3.143  -0.222  -2.280  1.00  0.00     0.085 A 
ATOM      6  Cl  UNL     1       4.337  -0.567  -3.481  1.00  0.00    -0.080 Cl
ATOM      7  C   UNL     1       3.480   0.478  -1.112  1.00  0.00     0.150 A 
ATOM      8  C   UNL     1       2.513   0.804  -0.150  1.00  0.00     0.076 A 
ATOM      9  C   UNL     1       1.215   0.352  -0.400  1.00  0.00     0.071 A 
ATOM     10  N   UNL     1       0.043   0.470   0.307  1.00  0.00    -0.322 N 
ATOM     11  H   UNL     1      -0.062   0.941   1.193  1.00  0.00     0.170 HD
ENDROOT
BRANCH   1  12
ATOM     12  N   UNL     1      -2.269  -0.239   0.035  1.00  0.00    -0.207 N 
ATOM     13  C   UNL     1      -4.175  -0.069   1.160  1.00  0.00     0.098 A 
ATOM     14  C   UNL     1      -4.323  -0.779  -0.046  1.00  0.00     0.151 A 
ATOM     15  C   UNL     1      -2.834   0.267   1.183  1.00  0.00     0.134 A 
ATOM     16  N   UNL     1      -3.181  -0.885  -0.727  1.00  0.00    -0.173 NA
BRANCH  13  17
ATOM     17  C   UNL     1      -5.157   0.255   2.161  1.00  0.00     0.338 C 
ATOM     18  O   UNL     1      -4.938   0.881   3.187  1.00  0.00    -0.246 OA
BRANCH  17  19
ATOM     19  O   UNL     1      -6.398  -0.198   1.886  1.00  0.00    -0.478 OA
ATOM     20  H   UNL     1      -6.929   0.102   2.653  1.00  0.00     0.297 HD
ENDBRANCH  17  19
ENDBRANCH  13  17
ENDBRANCH   1  12
BRANCH   7  21
ATOM     21  O   UNL     1       4.763   0.932  -0.931  1.00  0.00    -0.404 OA
BRANCH  21  22
ATOM     22  C   UNL     1       5.478   0.093  -0.030  1.00  0.00     0.573 C 
ATOM     23  F   UNL     1       5.377  -1.210  -0.366  1.00  0.00    -0.132 F 
ATOM     24  F   UNL     1       6.783   0.441  -0.053  1.00  0.00    -0.132 F 
ATOM     25  F   UNL     1       5.023   0.262   1.232  1.00  0.00    -0.132 F 
ENDBRANCH  21  22
ENDBRANCH   7  21
TORSDOF 5
