REMARK SMILES C=C1/C(=C\C=C2/CCC[C@]3(C)[C@@H]([C@H](C)CCCC(C)(C)O)CC[C@@H]23)C[C@@H](O)[C@@H](OCCCO)[C@@H]1O
REMARK SMILES IDX 5 1 6 2 7 3 8 4 9 5 10 6 11 7 12 8 22 9 23 10 24 11 4 12
REMARK SMILES IDX 1 13 2 14 3 15 34 16 25 17 28 18 26 19 35 20 29 22 30 23
REMARK SMILES IDX 31 24 32 25 33 26 27 28 13 30 14 31 15 32 16 33 17 34 18 35
REMARK SMILES IDX 19 36 20 37 21 38
REMARK H PARENT 35 21 33 27 27 29 21 39
ROOT
ATOM      1  C   UNL     1       1.985   0.017  -0.825  1.00  0.00    -0.000 C 
ATOM      2  C   UNL     1       1.027   0.661  -1.520  1.00  0.00    -0.067 C 
ATOM      3  C   UNL     1       1.107   1.061  -2.983  1.00  0.00     0.031 C 
ATOM      4  C   UNL     1      -0.118   0.602  -3.783  1.00  0.00     0.005 C 
ATOM      5  C   UNL     1      -1.454   0.960  -3.113  1.00  0.00     0.008 C 
ATOM      6  C   UNL     1      -1.520   0.481  -1.644  1.00  0.00    -0.023 C 
ATOM      7  C   UNL     1      -1.539  -1.066  -1.585  1.00  0.00     0.012 C 
ATOM      8  C   UNL     1      -2.679   1.097  -0.797  1.00  0.00    -0.002 C 
ATOM      9  C   UNL     1      -2.123   1.047   0.657  1.00  0.00     0.005 C 
ATOM     10  C   UNL     1      -0.607   0.851   0.564  1.00  0.00     0.009 C 
ATOM     11  C   UNL     1      -0.292   1.093  -0.909  1.00  0.00     0.021 C 
ENDROOT
BRANCH   1  12
ATOM     12  C   UNL     1       3.285  -0.399  -1.313  1.00  0.00     0.004 C 
ATOM     13  C   UNL     1       2.955  -2.601   0.913  1.00  0.00     0.015 C 
ATOM     14  C   UNL     1       4.012  -1.820   0.633  1.00  0.00    -0.021 C 
ATOM     15  C   UNL     1       4.185  -1.173  -0.671  1.00  0.00    -0.040 C 
ATOM     16  C   UNL     1       5.204  -1.611   1.551  1.00  0.00     0.175 C 
ATOM     17  C   UNL     1       5.554  -1.398  -1.293  1.00  0.00     0.070 C 
ATOM     18  C   UNL     1       6.523  -2.160   0.940  1.00  0.00     0.180 C 
ATOM     19  C   UNL     1       6.370  -2.476  -0.565  1.00  0.00     0.150 C 
BRANCH  16  20
ATOM     20  O   UNL     1       4.992  -2.217   2.831  1.00  0.00    -0.386 OA
ATOM     21  H   UNL     1       4.255  -1.727   3.237  1.00  0.00     0.211 HD
ENDBRANCH  16  20
BRANCH  18  22
ATOM     22  O   UNL     1       7.586  -1.174   1.045  1.00  0.00    -0.372 OA
BRANCH  22  23
ATOM     23  C   UNL     1       8.109  -1.076   2.373  1.00  0.00     0.163 C 
BRANCH  23  24
ATOM     24  C   UNL     1       9.131   0.055   2.415  1.00  0.00     0.057 C 
BRANCH  24  25
ATOM     25  C   UNL     1       8.484   1.420   2.211  1.00  0.00     0.158 C 
BRANCH  25  26
ATOM     26  O   UNL     1       7.638   1.740   3.309  1.00  0.00    -0.396 OA
ATOM     27  H   UNL     1       8.207   1.871   4.087  1.00  0.00     0.210 HD
ENDBRANCH  25  26
ENDBRANCH  24  25
ENDBRANCH  23  24
ENDBRANCH  22  23
ENDBRANCH  18  22
BRANCH  19  28
ATOM     28  O   UNL     1       7.663  -2.590  -1.174  1.00  0.00    -0.390 OA
ATOM     29  H   UNL     1       8.213  -1.919  -0.720  1.00  0.00     0.211 HD
ENDBRANCH  19  28
ENDBRANCH   1  12
BRANCH   8  30
ATOM     30  C   UNL     1      -4.113   0.491  -0.890  1.00  0.00    -0.011 C 
ATOM     31  C   UNL     1      -4.647   0.480  -2.326  1.00  0.00     0.008 C 
BRANCH  30  32
ATOM     32  C   UNL     1      -5.086   1.272   0.036  1.00  0.00     0.004 C 
BRANCH  32  33
ATOM     33  C   UNL     1      -6.472   0.625   0.179  1.00  0.00     0.003 C 
BRANCH  33  34
ATOM     34  C   UNL     1      -7.306   1.348   1.243  1.00  0.00     0.034 C 
BRANCH  34  35
ATOM     35  C   UNL     1      -8.727   0.789   1.464  1.00  0.00     0.059 C 
ATOM     36  C   UNL     1      -8.710  -0.658   1.958  1.00  0.00     0.042 C 
ATOM     37  C   UNL     1      -9.607   0.914   0.218  1.00  0.00     0.042 C 
BRANCH  35  38
ATOM     38  O   UNL     1      -9.335   1.569   2.503  1.00  0.00    -0.390 OA
ATOM     39  H   UNL     1      -9.384   2.490   2.197  1.00  0.00     0.211 HD
ENDBRANCH  35  38
ENDBRANCH  34  35
ENDBRANCH  33  34
ENDBRANCH  32  33
ENDBRANCH  30  32
ENDBRANCH   8  30
TORSDOF 14
