REMARK SMILES CCC(=O)O[C@]1(C(=O)CCl)[C@@H](C)C[C@H]2[C@@H]3C[C@H](F)C4=CC(=O)C=C[C@]4(C)[C@@]3(F)[C@@H](O)C[C@@]21C
REMARK SMILES IDX 6 1 11 2 12 3 13 4 14 5 15 6 16 7 17 8 18 9 19 10 20 11
REMARK SMILES IDX 21 12 22 13 23 14 24 15 25 16 26 17 27 18 28 19 29 20 31 21
REMARK SMILES IDX 32 22 33 23 5 24 3 25 4 26 2 27 1 28 7 29 8 30 9 31 10 32
REMARK SMILES IDX 30 33
REMARK H PARENT 30 34
ROOT
ATOM      1  C   UNL     1      -2.243   1.073  -0.618  1.00  0.00     0.179 C 
ATOM      2  C   UNL     1      -2.201   0.712  -2.163  1.00  0.00     0.039 C 
ATOM      3  C   UNL     1      -2.618   1.783  -3.169  1.00  0.00     0.012 C 
ATOM      4  C   UNL     1      -0.756   0.232  -2.460  1.00  0.00     0.012 C 
ATOM      5  C   UNL     1      -0.149  -0.017  -1.085  1.00  0.00     0.006 C 
ATOM      6  C   UNL     1       1.377  -0.209  -0.989  1.00  0.00     0.037 C 
ATOM      7  C   UNL     1       1.824  -1.389  -1.870  1.00  0.00     0.049 C 
ATOM      8  C   UNL     1       3.310  -1.692  -1.727  1.00  0.00     0.194 C 
ATOM      9  F   UNL     1       3.580  -2.795  -2.482  1.00  0.00    -0.243 F 
ATOM     10  C   UNL     1       3.674  -1.909  -0.282  1.00  0.00    -0.020 C 
ATOM     11  C   UNL     1       4.222  -3.069   0.125  1.00  0.00     0.055 C 
ATOM     12  C   UNL     1       4.531  -3.333   1.544  1.00  0.00     0.178 C 
ATOM     13  O   UNL     1       5.042  -4.385   1.903  1.00  0.00    -0.290 OA
ATOM     14  C   UNL     1       4.197  -2.273   2.514  1.00  0.00     0.048 C 
ATOM     15  C   UNL     1       3.653  -1.116   2.115  1.00  0.00    -0.009 C 
ATOM     16  C   UNL     1       3.322  -0.750   0.668  1.00  0.00     0.047 C 
ATOM     17  C   UNL     1       4.235   0.447   0.316  1.00  0.00     0.024 C 
ATOM     18  C   UNL     1       1.775  -0.446   0.506  1.00  0.00     0.152 C 
ATOM     19  F   UNL     1       1.112  -1.604   0.885  1.00  0.00    -0.239 F 
ATOM     20  C   UNL     1       1.205   0.666   1.439  1.00  0.00     0.154 C 
ATOM     21  C   UNL     1      -0.310   0.892   1.223  1.00  0.00     0.047 C 
ATOM     22  C   UNL     1      -0.697   1.167  -0.248  1.00  0.00     0.021 C 
ATOM     23  C   UNL     1      -0.084   2.526  -0.693  1.00  0.00     0.016 C 
ENDROOT
BRANCH   1  24
ATOM     24  O   UNL     1      -2.814  -0.141  -0.024  1.00  0.00    -0.450 OA
BRANCH  24  25
ATOM     25  C   UNL     1      -3.282  -0.157   1.252  1.00  0.00     0.306 C 
ATOM     26  O   UNL     1      -3.344   0.822   1.978  1.00  0.00    -0.252 OA
BRANCH  25  27
ATOM     27  C   UNL     1      -3.720  -1.555   1.613  1.00  0.00     0.119 C 
ATOM     28  C   UNL     1      -4.188  -1.649   3.054  1.00  0.00     0.016 C 
ENDBRANCH  25  27
ENDBRANCH  24  25
ENDBRANCH   1  24
BRANCH   1  29
ATOM     29  C   UNL     1      -3.120   2.332  -0.324  1.00  0.00     0.191 C 
ATOM     30  O   UNL     1      -2.627   3.407   0.027  1.00  0.00    -0.294 OA
BRANCH  29  31
ATOM     31  C   UNL     1      -4.624   2.170  -0.470  1.00  0.00     0.189 C 
ATOM     32  Cl  UNL     1      -5.326   3.577  -1.295  1.00  0.00    -0.118 Cl
ENDBRANCH  29  31
ENDBRANCH   1  29
BRANCH  20  33
ATOM     33  O   UNL     1       1.909   1.894   1.309  1.00  0.00    -0.390 OA
ATOM     34  H   UNL     1       1.476   2.549   1.887  1.00  0.00     0.211 HD
ENDBRANCH  20  33
TORSDOF 6
