REMARK SMILES Nc1ccc(S(=O)(=O)Nc2ccc(Cl)nn2)cc1
REMARK SMILES IDX 6 1 7 2 8 3 5 4 2 5 3 6 18 7 4 8 17 9 1 10 9 13 10 15 11 16
REMARK SMILES IDX 16 17 12 18 15 19 13 20 14 21
REMARK H PARENT 1 11 1 12 9 14
ROOT
ATOM      1  S   UNL     1       0.470  -0.439  -2.124  1.00  0.00     0.263 S 
ATOM      2  O   UNL     1       1.129   0.783  -2.530  1.00  0.00    -0.201 OA
ATOM      3  O   UNL     1       0.078  -1.422  -3.115  1.00  0.00    -0.201 OA
ENDROOT
BRANCH   1   4
ATOM      4  C   UNL     1      -0.976  -0.059  -1.172  1.00  0.00     0.088 A 
ATOM      5  C   UNL     1      -3.286   0.532   0.299  1.00  0.00     0.031 A 
ATOM      6  C   UNL     1      -3.069  -0.759  -0.194  1.00  0.00     0.027 A 
ATOM      7  C   UNL     1      -2.376   1.542  -0.032  1.00  0.00     0.027 A 
ATOM      8  C   UNL     1      -1.911  -1.064  -0.914  1.00  0.00     0.024 A 
ATOM      9  C   UNL     1      -1.214   1.251  -0.753  1.00  0.00     0.024 A 
BRANCH   5  10
ATOM     10  N   UNL     1      -4.500   0.855   0.916  1.00  0.00    -0.399 N 
ATOM     11  H   UNL     1      -4.454   1.687   1.497  1.00  0.00     0.156 HD
ATOM     12  H   UNL     1      -4.939   0.075   1.394  1.00  0.00     0.156 HD
ENDBRANCH   5  10
ENDBRANCH   1   4
BRANCH   1  13
ATOM     13  N   UNL     1       1.453  -1.272  -1.057  1.00  0.00    -0.262 N 
ATOM     14  H   UNL     1       1.824  -2.128  -1.456  1.00  0.00     0.182 HD
BRANCH  13  15
ATOM     15  C   UNL     1       2.209  -0.554  -0.111  1.00  0.00     0.162 A 
ATOM     16  C   UNL     1       3.427  -1.055   0.318  1.00  0.00     0.053 A 
ATOM     17  N   UNL     1       1.648   0.521   0.472  1.00  0.00    -0.131 NA
ATOM     18  C   UNL     1       4.107  -0.382   1.331  1.00  0.00     0.047 A 
ATOM     19  N   UNL     1       2.312   1.190   1.471  1.00  0.00    -0.136 NA
ATOM     20  C   UNL     1       3.514   0.739   1.875  1.00  0.00     0.151 A 
ATOM     21  Cl  UNL     1       4.262   1.634   3.126  1.00  0.00    -0.060 Cl
ENDBRANCH  13  15
ENDBRANCH   1  13
TORSDOF 4
