REMARK SMILES CC(C)=CCC/C(C)=C/CNCCNC1[C@H]2C[C@@H]3C[C@@H](C[C@H]1C3)C2
REMARK SMILES IDX 10 1 9 2 7 3 8 4 6 5 5 6 4 7 2 8 1 9 3 10 11 11 12 13 13 14
REMARK SMILES IDX 14 15 15 17 16 18 22 19 17 20 24 21 21 22 23 23 18 24 20 25
REMARK SMILES IDX 19 26
REMARK H PARENT 11 12 14 16
ROOT
ATOM      1  C   UNL     1       1.085  -0.432   0.643  1.00  0.00     0.108 C 
ENDROOT
BRANCH   1   2
ATOM      2  C   UNL     1       2.443  -0.933   0.242  1.00  0.00    -0.013 C 
ATOM      3  C   UNL     1       2.958  -1.078  -0.997  1.00  0.00    -0.076 C 
ATOM      4  C   UNL     1       2.241  -0.727  -2.273  1.00  0.00     0.039 C 
BRANCH   3   5
ATOM      5  C   UNL     1       4.360  -1.640  -1.177  1.00  0.00     0.034 C 
BRANCH   5   6
ATOM      6  C   UNL     1       5.418  -0.605  -1.588  1.00  0.00     0.032 C 
BRANCH   6   7
ATOM      7  C   UNL     1       5.669   0.434  -0.527  1.00  0.00    -0.028 C 
ATOM      8  C   UNL     1       6.735   0.547   0.289  1.00  0.00    -0.080 C 
ATOM      9  C   UNL     1       7.905  -0.397   0.326  1.00  0.00     0.039 C 
ATOM     10  C   UNL     1       6.822   1.679   1.279  1.00  0.00     0.039 C 
ENDBRANCH   6   7
ENDBRANCH   5   6
ENDBRANCH   3   5
ENDBRANCH   1   2
BRANCH   1  11
ATOM     11  N   UNL     1       1.224   0.880   1.272  1.00  0.00    -0.312 NA
ATOM     12  H   UNL     1       1.946   0.823   1.988  1.00  0.00     0.123 HD
BRANCH  11  13
ATOM     13  C   UNL     1      -0.020   1.341   1.902  1.00  0.00     0.096 C 
BRANCH  13  14
ATOM     14  C   UNL     1      -1.226   1.536   0.952  1.00  0.00     0.096 C 
BRANCH  14  15
ATOM     15  N   UNL     1      -1.977   0.289   0.759  1.00  0.00    -0.312 NA
ATOM     16  H   UNL     1      -2.371  -0.015   1.646  1.00  0.00     0.123 HD
BRANCH  15  17
ATOM     17  C   UNL     1      -3.016   0.396  -0.274  1.00  0.00     0.060 C 
ATOM     18  C   UNL     1      -4.231   1.278   0.124  1.00  0.00     0.007 C 
ATOM     19  C   UNL     1      -3.538  -1.024  -0.634  1.00  0.00     0.007 C 
ATOM     20  C   UNL     1      -5.179   1.383  -1.089  1.00  0.00     0.008 C 
ATOM     21  C   UNL     1      -5.010   0.651   1.298  1.00  0.00     0.008 C 
ATOM     22  C   UNL     1      -4.320  -1.645   0.542  1.00  0.00     0.008 C 
ATOM     23  C   UNL     1      -4.489  -0.907  -1.843  1.00  0.00     0.008 C 
ATOM     24  C   UNL     1      -5.688  -0.012  -1.490  1.00  0.00    -0.010 C 
ATOM     25  C   UNL     1      -5.515  -0.750   0.913  1.00  0.00    -0.010 C 
ATOM     26  C   UNL     1      -6.448  -0.630  -0.305  1.00  0.00     0.007 C 
ENDBRANCH  15  17
ENDBRANCH  14  15
ENDBRANCH  13  14
ENDBRANCH  11  13
ENDBRANCH   1  11
TORSDOF 9
