REMARK SMILES O=C(c1c(F)ccc(NS(=O)(=O)N2CC[C@@H](F)C2)c1F)c1c[nH]c2ncc(-c3cnc(C4CC4)nc3)cc12
REMARK SMILES IDX 3 1 4 2 5 3 6 4 7 5 8 6 19 7 20 8 2 9 1 10 21 11 22 12 38 13
REMARK SMILES IDX 23 14 37 15 24 16 27 17 25 18 26 19 28 21 29 22 36 23 30 24
REMARK SMILES IDX 35 25 31 26 32 27 33 28 34 29 9 30 10 32 11 33 12 34 13 35
REMARK SMILES IDX 14 36 18 37 15 38 16 39 17 40
REMARK H PARENT 23 20 9 31
ROOT
ATOM      1  C   UNL     1      -1.541  -0.238  -0.882  1.00  0.00     0.096 A 
ATOM      2  C   UNL     1      -1.958  -0.965  -1.992  1.00  0.00     0.137 A 
ATOM      3  F   UNL     1      -1.065  -1.506  -2.832  1.00  0.00    -0.206 F 
ATOM      4  C   UNL     1      -3.316  -1.138  -2.253  1.00  0.00     0.042 A 
ATOM      5  C   UNL     1      -4.266  -0.584  -1.391  1.00  0.00     0.033 A 
ATOM      6  C   UNL     1      -3.851   0.139  -0.270  1.00  0.00     0.086 A 
ATOM      7  C   UNL     1      -2.484   0.302  -0.017  1.00  0.00     0.161 A 
ATOM      8  F   UNL     1      -2.104   1.024   1.049  1.00  0.00    -0.204 F 
ENDROOT
BRANCH   1   9
ATOM      9  C   UNL     1      -0.117  -0.063  -0.598  1.00  0.00     0.201 C 
ATOM     10  O   UNL     1       0.348  -0.635   0.383  1.00  0.00    -0.288 OA
BRANCH   9  11
ATOM     11  C   UNL     1       0.683   0.786  -1.478  1.00  0.00     0.050 A 
ATOM     12  C   UNL     1       0.232   1.560  -2.539  1.00  0.00     0.097 A 
ATOM     13  C   UNL     1       2.101   0.996  -1.402  1.00  0.00     0.030 A 
ATOM     14  N   UNL     1       1.309   2.201  -3.099  1.00  0.00    -0.345 N 
ATOM     15  C   UNL     1       3.147   0.539  -0.575  1.00  0.00     0.023 A 
ATOM     16  C   UNL     1       2.446   1.873  -2.420  1.00  0.00     0.138 A 
ATOM     17  C   UNL     1       4.457   0.983  -0.819  1.00  0.00     0.004 A 
ATOM     18  N   UNL     1       3.668   2.343  -2.721  1.00  0.00    -0.238 NA
ATOM     19  C   UNL     1       4.632   1.864  -1.894  1.00  0.00     0.122 A 
ATOM     20  H   UNL     1       1.295   2.829  -3.890  1.00  0.00     0.167 HD
BRANCH  17  21
ATOM     21  C   UNL     1       5.584   0.541   0.007  1.00  0.00     0.020 A 
ATOM     22  C   UNL     1       6.557   1.396   0.489  1.00  0.00     0.123 A 
ATOM     23  C   UNL     1       5.783  -0.774   0.383  1.00  0.00     0.123 A 
ATOM     24  N   UNL     1       7.613   1.015   1.242  1.00  0.00    -0.240 NA
ATOM     25  N   UNL     1       6.818  -1.211   1.135  1.00  0.00    -0.240 NA
ATOM     26  C   UNL     1       7.716  -0.294   1.546  1.00  0.00     0.131 A 
BRANCH  26  27
ATOM     27  C   UNL     1       8.878  -0.750   2.393  1.00  0.00     0.058 C 
ATOM     28  C   UNL     1       9.794  -1.847   1.899  1.00  0.00     0.012 C 
ATOM     29  C   UNL     1      10.296  -0.437   1.972  1.00  0.00     0.012 C 
ENDBRANCH  26  27
ENDBRANCH  17  21
ENDBRANCH   9  11
ENDBRANCH   1   9
BRANCH   6  30
ATOM     30  N   UNL     1      -4.807   0.689   0.655  1.00  0.00    -0.268 N 
ATOM     31  H   UNL     1      -4.365   1.374   1.277  1.00  0.00     0.181 HD
BRANCH  30  32
ATOM     32  S   UNL     1      -5.565  -0.431   1.668  1.00  0.00     0.301 S 
ATOM     33  O   UNL     1      -6.245   0.316   2.700  1.00  0.00    -0.189 OA
ATOM     34  O   UNL     1      -4.632  -1.483   1.989  1.00  0.00    -0.189 OA
BRANCH  32  35
ATOM     35  N   UNL     1      -6.735  -1.055   0.634  1.00  0.00    -0.182 NA
ATOM     36  C   UNL     1      -7.800  -0.116   0.183  1.00  0.00     0.107 C 
ATOM     37  C   UNL     1      -7.412  -2.293   1.136  1.00  0.00     0.141 C 
ATOM     38  C   UNL     1      -9.095  -0.658   0.769  1.00  0.00     0.056 C 
ATOM     39  C   UNL     1      -8.869  -2.150   0.717  1.00  0.00     0.183 C 
ATOM     40  F   UNL     1      -9.017  -2.570  -0.570  1.00  0.00    -0.246 F 
ENDBRANCH  32  35
ENDBRANCH  30  32
ENDBRANCH   6  30
TORSDOF 7
