REMARK SMILES Cl/C=C\C[N+]12CN3CN(CN(C3)C1)C2
REMARK SMILES IDX 1 1 2 2 3 3 4 4 5 5 14 6 13 7 6 8 9 9 11 10 7 11 8 12 10 13
REMARK SMILES IDX 12 14
REMARK H PARENT
ROOT
ATOM      1  Cl  UNL     1       3.771  -1.898   0.675  1.00  0.00    -0.093 Cl
ATOM      2  C   UNL     1       3.716  -0.188   0.714  1.00  0.00     0.081 C 
ATOM      3  C   UNL     1       2.839   0.562   0.036  1.00  0.00     0.046 C 
ENDROOT
BRANCH   3   4
ATOM      4  C   UNL     1       1.800   0.073  -0.926  1.00  0.00     0.296 C 
BRANCH   4   5
ATOM      5  N   UNL     1       0.374   0.047  -0.409  1.00  0.00    -0.283 N 
ATOM      6  C   UNL     1      -0.536  -0.439  -1.489  1.00  0.00     0.363 C 
ATOM      7  C   UNL     1      -0.116   1.388   0.007  1.00  0.00     0.363 C 
ATOM      8  C   UNL     1       0.207  -0.878   0.748  1.00  0.00     0.363 C 
ATOM      9  N   UNL     1      -1.903  -0.483  -1.037  1.00  0.00    -0.230 NA
ATOM     10  N   UNL     1      -1.488   1.322   0.446  1.00  0.00    -0.230 NA
ATOM     11  N   UNL     1      -1.171  -0.915   1.177  1.00  0.00    -0.230 NA
ATOM     12  C   UNL     1      -2.015  -1.390   0.094  1.00  0.00     0.185 C 
ATOM     13  C   UNL     1      -2.333   0.846  -0.637  1.00  0.00     0.185 C 
ATOM     14  C   UNL     1      -1.599   0.415   1.578  1.00  0.00     0.185 C 
ENDBRANCH   4   5
ENDBRANCH   3   4
TORSDOF 2
