REMARK SMILES O=C1c2c(O)c(=O)ccn2N([C@@H]2c3ccccc3SCc3c2ccc(F)c3F)[C@@H]2COCCN12
REMARK SMILES IDX 1 1 2 2 3 3 4 4 6 5 7 6 8 7 9 8 10 9 11 10 29 11 30 12 31 13
REMARK SMILES IDX 32 14 33 15 34 16 5 17 12 19 13 20 22 21 14 22 18 23 21 24
REMARK SMILES IDX 23 25 15 26 17 27 19 28 20 29 27 30 24 31 16 32 25 33 28 34
REMARK SMILES IDX 26 35
REMARK H PARENT 5 18
ROOT
ATOM      1  O   UNL     1      -3.890  -0.788   1.162  1.00  0.00    -0.267 OA
ATOM      2  C   UNL     1      -2.933  -0.453   0.471  1.00  0.00     0.278 C 
ATOM      3  C   UNL     1      -2.608  -1.078  -0.863  1.00  0.00     0.173 C 
ATOM      4  C   UNL     1      -3.567  -1.775  -1.509  1.00  0.00     0.195 C 
ATOM      5  C   UNL     1      -3.206  -2.414  -2.810  1.00  0.00     0.224 C 
ATOM      6  O   UNL     1      -4.046  -3.063  -3.428  1.00  0.00    -0.286 OA
ATOM      7  C   UNL     1      -1.838  -2.234  -3.327  1.00  0.00     0.076 C 
ATOM      8  C   UNL     1      -0.988  -1.509  -2.593  1.00  0.00     0.115 C 
ATOM      9  N   UNL     1      -1.293  -0.939  -1.367  1.00  0.00    -0.253 N 
ATOM     10  N   UNL     1      -0.394  -0.001  -0.772  1.00  0.00    -0.275 NA
ATOM     11  C   UNL     1      -1.070   1.073  -0.045  1.00  0.00     0.225 C 
ATOM     12  C   UNL     1      -0.217   2.158   0.658  1.00  0.00     0.209 C 
ATOM     13  O   UNL     1      -1.001   3.183   1.298  1.00  0.00    -0.375 OA
ATOM     14  C   UNL     1      -2.200   2.701   1.924  1.00  0.00     0.182 C 
ATOM     15  C   UNL     1      -2.205   1.191   2.161  1.00  0.00     0.150 C 
ATOM     16  N   UNL     1      -2.010   0.483   0.898  1.00  0.00    -0.311 N 
ENDROOT
BRANCH   4  17
ATOM     17  O   UNL     1      -4.872  -1.936  -1.089  1.00  0.00    -0.502 OA
ATOM     18  H   UNL     1      -5.301  -2.506  -1.761  1.00  0.00     0.293 HD
ENDBRANCH   4  17
BRANCH  10  19
ATOM     19  C   UNL     1       1.000  -0.453  -0.444  1.00  0.00     0.165 C 
ATOM     20  C   UNL     1       1.181  -1.198   0.910  1.00  0.00    -0.006 A 
ATOM     21  C   UNL     1       1.975   0.652  -0.988  1.00  0.00    -0.012 A 
ATOM     22  C   UNL     1       0.093  -1.950   1.418  1.00  0.00     0.007 A 
ATOM     23  C   UNL     1       2.392  -1.385   1.610  1.00  0.00     0.013 A 
ATOM     24  C   UNL     1       2.980   1.352  -0.280  1.00  0.00     0.007 A 
ATOM     25  C   UNL     1       1.797   1.021  -2.355  1.00  0.00     0.010 A 
ATOM     26  C   UNL     1       0.152  -2.734   2.576  1.00  0.00     0.000 A 
ATOM     27  C   UNL     1       2.457  -2.190   2.772  1.00  0.00     0.015 A 
ATOM     28  S   UNL     1       3.958  -0.666   1.184  1.00  0.00    -0.121 SA
ATOM     29  C   UNL     1       3.384   1.037   1.124  1.00  0.00     0.114 C 
ATOM     30  C   UNL     1       3.706   2.380  -0.923  1.00  0.00     0.163 A 
ATOM     31  C   UNL     1       2.534   2.031  -2.978  1.00  0.00     0.043 A 
ATOM     32  C   UNL     1       1.340  -2.849   3.264  1.00  0.00     0.001 A 
ATOM     33  C   UNL     1       3.484   2.714  -2.249  1.00  0.00     0.159 A 
ATOM     34  F   UNL     1       4.645   3.056  -0.244  1.00  0.00    -0.203 F 
ATOM     35  F   UNL     1       4.190   3.692  -2.831  1.00  0.00    -0.204 F 
ENDBRANCH  10  19
TORSDOF 2
