REMARK SMILES N#Cc1cc2[nH]c(=O)c(=O)[nH]c2cc1[N+](=O)[O-]
REMARK SMILES IDX 1 1 2 2 3 3 4 4 5 5 6 6 7 7 8 8 9 9 10 10 11 11 12 12 13 13
REMARK SMILES IDX 14 14 15 17 16 18 17 19
REMARK H PARENT 6 15 11 16
ROOT
ATOM      1  N   UNL     1      -4.227  -1.655  -0.378  1.00  0.00    -0.192 NA
ATOM      2  C   UNL     1      -3.189  -1.139  -0.349  1.00  0.00     0.106 C 
ATOM      3  C   UNL     1      -1.887  -0.542  -0.283  1.00  0.00     0.132 A 
ATOM      4  C   UNL     1      -0.762  -1.381  -0.277  1.00  0.00     0.055 A 
ATOM      5  C   UNL     1       0.519  -0.832  -0.172  1.00  0.00     0.067 A 
ATOM      6  N   UNL     1       1.633  -1.673  -0.166  1.00  0.00    -0.316 N 
ATOM      7  C   UNL     1       2.930  -1.216  -0.063  1.00  0.00     0.314 C 
ATOM      8  O   UNL     1       3.882  -1.984  -0.062  1.00  0.00    -0.263 OA
ATOM      9  C   UNL     1       3.122   0.317   0.054  1.00  0.00     0.314 C 
ATOM     10  O   UNL     1       4.232   0.819   0.152  1.00  0.00    -0.263 OA
ATOM     11  N   UNL     1       1.978   1.088   0.043  1.00  0.00    -0.316 N 
ATOM     12  C   UNL     1       0.693   0.555  -0.067  1.00  0.00     0.072 A 
ATOM     13  C   UNL     1      -0.410   1.403  -0.072  1.00  0.00     0.115 A 
ATOM     14  C   UNL     1      -1.690   0.841  -0.186  1.00  0.00     0.289 A 
ATOM     15  H   UNL     1       1.536  -2.678  -0.241  1.00  0.00     0.170 HD
ATOM     16  H   UNL     1       2.132   2.086   0.123  1.00  0.00     0.170 HD
ENDROOT
BRANCH  14  17
ATOM     17  N   UNL     1      -2.822   1.749  -0.208  1.00  0.00     0.064 N 
ATOM     18  O   UNL     1      -3.568   1.691  -1.191  1.00  0.00    -0.258 OA
ATOM     19  O   UNL     1      -2.926   2.531   0.743  1.00  0.00    -0.258 OA
ENDBRANCH  14  17
TORSDOF 1
