REMARK SMILES CN(C)c1nc(N(C)C)nc(N(C)C)n1
REMARK SMILES IDX 4 1 5 2 6 3 10 4 11 5 15 6 2 7 1 8 3 9 7 10 8 11 9 12 12 13
REMARK SMILES IDX 13 14 14 15
REMARK H PARENT
ROOT
ATOM      1  C   UNL     1      -0.207   1.295   0.169  1.00  0.00     0.231 A 
ATOM      2  N   UNL     1      -1.167   0.447   0.517  1.00  0.00    -0.177 NA
ATOM      3  C   UNL     1      -0.989  -0.834   0.220  1.00  0.00     0.231 A 
ATOM      4  N   UNL     1       0.099  -1.280  -0.398  1.00  0.00    -0.177 NA
ATOM      5  C   UNL     1       1.033  -0.390  -0.709  1.00  0.00     0.231 A 
ATOM      6  N   UNL     1       0.907   0.903  -0.436  1.00  0.00    -0.177 NA
ENDROOT
BRANCH   1   7
ATOM      7  N   UNL     1      -0.361   2.652   0.485  1.00  0.00    -0.347 N 
ATOM      8  C   UNL     1      -1.741   3.060   0.698  1.00  0.00     0.146 C 
ATOM      9  C   UNL     1       0.464   3.545  -0.315  1.00  0.00     0.146 C 
ENDBRANCH   1   7
BRANCH   3  10
ATOM     10  N   UNL     1      -1.999  -1.747   0.549  1.00  0.00    -0.347 N 
ATOM     11  C   UNL     1      -2.884  -1.303   1.615  1.00  0.00     0.146 C 
ATOM     12  C   UNL     1      -1.568  -3.135   0.592  1.00  0.00     0.146 C 
ENDBRANCH   3  10
BRANCH   5  13
ATOM     13  N   UNL     1       2.186  -0.827  -1.374  1.00  0.00    -0.347 N 
ATOM     14  C   UNL     1       3.328   0.064  -1.240  1.00  0.00     0.146 C 
ATOM     15  C   UNL     1       2.448  -2.252  -1.254  1.00  0.00     0.146 C 
ENDBRANCH   5  13
TORSDOF 3
