REMARK SMILES C/C=C/c1cc(OC)c(OC)cc1OC
REMARK SMILES IDX 4 1 5 2 6 3 9 4 12 5 13 6 3 7 2 8 1 9 14 10 15 11 7 12 8 13
REMARK SMILES IDX 10 14 11 15
REMARK H PARENT
ROOT
ATOM      1  C   UNL     1       0.815  -0.285   0.003  1.00  0.00     0.020 A 
ATOM      2  C   UNL     1      -0.244  -1.193   0.167  1.00  0.00     0.062 A 
ATOM      3  C   UNL     1      -1.571  -0.799  -0.034  1.00  0.00     0.161 A 
ATOM      4  C   UNL     1      -1.848   0.525  -0.420  1.00  0.00     0.164 A 
ATOM      5  C   UNL     1      -0.795   1.431  -0.605  1.00  0.00     0.097 A 
ATOM      6  C   UNL     1       0.534   1.036  -0.401  1.00  0.00     0.130 A 
ENDROOT
BRANCH   1   7
ATOM      7  C   UNL     1       2.209  -0.732   0.194  1.00  0.00     0.007 C 
ATOM      8  C   UNL     1       2.618  -1.543   1.184  1.00  0.00    -0.030 C 
ATOM      9  C   UNL     1       4.038  -1.968   1.369  1.00  0.00     0.035 C 
ENDBRANCH   1   7
BRANCH   6  10
ATOM     10  O   UNL     1       1.619   1.863  -0.567  1.00  0.00    -0.496 OA
ATOM     11  C   UNL     1       1.376   3.222  -0.905  1.00  0.00     0.278 C 
ENDBRANCH   6  10
BRANCH   3  12
ATOM     12  O   UNL     1      -2.658  -1.625   0.113  1.00  0.00    -0.493 OA
ATOM     13  C   UNL     1      -2.420  -2.965   0.516  1.00  0.00     0.278 C 
ENDBRANCH   3  12
BRANCH   4  14
ATOM     14  O   UNL     1      -3.176   0.832  -0.597  1.00  0.00    -0.493 OA
ATOM     15  C   UNL     1      -3.510   2.164  -0.957  1.00  0.00     0.278 C 
ENDBRANCH   4  14
TORSDOF 4
