REMARK SMILES O=C1Nc2ccccc2/C1=C1/Nc2ccccc2/C1=N\O
REMARK SMILES IDX 1 1 2 2 3 3 4 4 5 5 6 6 7 7 8 8 9 9 10 10 11 11 12 12 13 13
REMARK SMILES IDX 14 14 15 15 16 16 17 17 18 18 19 19 20 20 21 23
REMARK H PARENT 3 21 12 22 21 24
ROOT
ATOM      1  O   UNL     1      -0.874   2.765   1.604  1.00  0.00    -0.269 OA
ATOM      2  C   UNL     1      -1.501   1.999   0.892  1.00  0.00     0.258 C 
ATOM      3  N   UNL     1      -2.848   2.067   0.604  1.00  0.00    -0.321 N 
ATOM      4  C   UNL     1      -3.248   0.997  -0.186  1.00  0.00     0.049 A 
ATOM      5  C   UNL     1      -4.540   0.758  -0.617  1.00  0.00     0.027 A 
ATOM      6  C   UNL     1      -4.760  -0.387  -1.377  1.00  0.00     0.002 A 
ATOM      7  C   UNL     1      -3.698  -1.255  -1.673  1.00  0.00     0.001 A 
ATOM      8  C   UNL     1      -2.397  -0.987  -1.221  1.00  0.00     0.011 A 
ATOM      9  C   UNL     1      -2.162   0.157  -0.480  1.00  0.00     0.013 A 
ATOM     10  C   UNL     1      -0.988   0.772   0.164  1.00  0.00     0.075 C 
ATOM     11  C   UNL     1       0.330   0.514   0.239  1.00  0.00     0.082 C 
ATOM     12  N   UNL     1       1.267   1.250   0.954  1.00  0.00    -0.352 N 
ATOM     13  C   UNL     1       2.471   0.569   1.025  1.00  0.00     0.048 A 
ATOM     14  C   UNL     1       3.613   0.955   1.701  1.00  0.00     0.027 A 
ATOM     15  C   UNL     1       4.752   0.152   1.593  1.00  0.00     0.002 A 
ATOM     16  C   UNL     1       4.737  -1.008   0.801  1.00  0.00     0.001 A 
ATOM     17  C   UNL     1       3.586  -1.377   0.098  1.00  0.00     0.013 A 
ATOM     18  C   UNL     1       2.464  -0.572   0.213  1.00  0.00     0.029 A 
ATOM     19  C   UNL     1       1.103  -0.651  -0.389  1.00  0.00     0.136 C 
ATOM     20  N   UNL     1       0.641  -1.476  -1.272  1.00  0.00    -0.087 NA
ATOM     21  H   UNL     1      -3.450   2.789   0.968  1.00  0.00     0.170 HD
ATOM     22  H   UNL     1       0.954   1.940   1.631  1.00  0.00     0.167 HD
ENDROOT
BRANCH  20  23
ATOM     23  O   UNL     1       1.572  -2.422  -1.696  1.00  0.00    -0.410 OA
ATOM     24  H   UNL     1       1.080  -2.910  -2.381  1.00  0.00     0.330 HD
ENDBRANCH  20  23
TORSDOF 1
