REMARK SMILES C/C=C1\[C@H](O[C@H]2O[C@@H](CO)[C@@H](O)[C@@H](O)[C@@H]2O)OC=C(C(=O)OC)[C@H]1CC(=O)OCCc1ccc(O)c(O)c1
REMARK SMILES IDX 26 1 27 2 25 3 24 4 2 5 3 6 4 7 17 8 19 9 18 10 1 11 5 12
REMARK SMILES IDX 6 13 7 14 15 15 8 16 13 17 11 18 16 19 9 21 10 22 14 24
REMARK SMILES IDX 12 26 20 28 21 29 22 30 23 31 28 32 29 33 30 34 31 35 32 36
REMARK SMILES IDX 38 37 33 38 36 39 34 40 37 41 35 43
REMARK H PARENT 16 20 10 23 14 25 12 27 37 42 35 44
ROOT
ATOM      1  C   UNL     1       2.106  -0.229   0.973  1.00  0.00     0.306 C 
ATOM      2  O   UNL     1       1.550   0.509   1.775  1.00  0.00    -0.252 OA
ENDROOT
BRANCH   1   3
ATOM      3  C   UNL     1       1.421  -1.267   0.112  1.00  0.00     0.136 C 
BRANCH   3   4
ATOM      4  C   UNL     1      -0.050  -1.502   0.515  1.00  0.00     0.073 C 
ATOM      5  C   UNL     1      -0.481  -2.525  -1.809  1.00  0.00    -0.024 C 
ATOM      6  C   UNL     1      -0.924  -2.135  -0.593  1.00  0.00     0.002 C 
ATOM      7  C   UNL     1      -2.354  -2.309  -0.100  1.00  0.00     0.337 C 
ATOM      8  O   UNL     1      -2.405  -3.175   1.049  1.00  0.00    -0.468 OA
ATOM      9  C   UNL     1      -0.284  -2.289   1.791  1.00  0.00     0.080 C 
ATOM     10  C   UNL     1      -1.385  -3.043   1.956  1.00  0.00     0.202 C 
ATOM     11  C   UNL     1      -1.265  -3.138  -2.929  1.00  0.00     0.036 C 
BRANCH   7  12
ATOM     12  O   UNL     1      -2.866  -1.012   0.201  1.00  0.00    -0.307 OA
BRANCH  12  13
ATOM     13  C   UNL     1      -4.287  -0.974   0.214  1.00  0.00     0.286 C 
ATOM     14  O   UNL     1      -4.731   0.061   1.099  1.00  0.00    -0.341 OA
ATOM     15  C   UNL     1      -4.866  -0.793  -1.213  1.00  0.00     0.202 C 
ATOM     16  C   UNL     1      -4.396   1.404   0.704  1.00  0.00     0.178 C 
ATOM     17  C   UNL     1      -5.494   0.598  -1.385  1.00  0.00     0.179 C 
ATOM     18  C   UNL     1      -4.548   1.652  -0.812  1.00  0.00     0.177 C 
BRANCH  15  19
ATOM     19  O   UNL     1      -5.873  -1.782  -1.498  1.00  0.00    -0.385 OA
ATOM     20  H   UNL     1      -6.240  -1.533  -2.368  1.00  0.00     0.211 HD
ENDBRANCH  15  19
BRANCH  16  21
ATOM     21  C   UNL     1      -3.049   1.842   1.288  1.00  0.00     0.191 C 
BRANCH  21  22
ATOM     22  O   UNL     1      -2.923   3.262   1.229  1.00  0.00    -0.394 OA
ATOM     23  H   UNL     1      -2.008   3.461   1.497  1.00  0.00     0.210 HD
ENDBRANCH  21  22
ENDBRANCH  16  21
BRANCH  17  24
ATOM     24  O   UNL     1      -5.709   0.827  -2.790  1.00  0.00    -0.387 OA
ATOM     25  H   UNL     1      -6.224   1.651  -2.869  1.00  0.00     0.211 HD
ENDBRANCH  17  24
BRANCH  18  26
ATOM     26  O   UNL     1      -3.304   1.567  -1.523  1.00  0.00    -0.387 OA
ATOM     27  H   UNL     1      -3.526   1.586  -2.473  1.00  0.00     0.211 HD
ENDBRANCH  18  26
ENDBRANCH  12  13
ENDBRANCH   7  12
BRANCH   9  28
ATOM     28  C   UNL     1       0.701  -2.304   2.891  1.00  0.00     0.337 C 
ATOM     29  O   UNL     1       1.895  -2.500   2.730  1.00  0.00    -0.246 OA
BRANCH  28  30
ATOM     30  O   UNL     1       0.085  -2.051   4.074  1.00  0.00    -0.466 OA
ATOM     31  C   UNL     1       0.976  -1.987   5.187  1.00  0.00     0.282 C 
ENDBRANCH  28  30
ENDBRANCH   9  28
ENDBRANCH   3   4
ENDBRANCH   1   3
BRANCH   1  32
ATOM     32  O   UNL     1       3.436  -0.205   0.679  1.00  0.00    -0.465 OA
BRANCH  32  33
ATOM     33  C   UNL     1       4.228   0.730   1.429  1.00  0.00     0.237 C 
BRANCH  33  34
ATOM     34  C   UNL     1       4.113   2.153   0.874  1.00  0.00     0.077 C 
BRANCH  34  35
ATOM     35  C   UNL     1       4.683   2.283  -0.520  1.00  0.00    -0.041 A 
ATOM     36  C   UNL     1       3.831   2.238  -1.638  1.00  0.00     0.008 A 
ATOM     37  C   UNL     1       6.066   2.430  -0.714  1.00  0.00     0.054 A 
ATOM     38  C   UNL     1       4.347   2.343  -2.931  1.00  0.00     0.050 A 
ATOM     39  C   UNL     1       6.570   2.534  -2.007  1.00  0.00     0.157 A 
ATOM     40  C   UNL     1       5.714   2.490  -3.104  1.00  0.00     0.157 A 
BRANCH  39  41
ATOM     41  O   UNL     1       7.908   2.680  -2.252  1.00  0.00    -0.504 OA
ATOM     42  H   UNL     1       8.371   2.692  -1.397  1.00  0.00     0.293 HD
ENDBRANCH  39  41
BRANCH  40  43
ATOM     43  O   UNL     1       6.220   2.592  -4.368  1.00  0.00    -0.504 OA
ATOM     44  H   UNL     1       7.184   2.685  -4.236  1.00  0.00     0.293 HD
ENDBRANCH  40  43
ENDBRANCH  34  35
ENDBRANCH  33  34
ENDBRANCH  32  33
ENDBRANCH   1  32
TORSDOF 17
