REMARK SMILES NC(=O)c1sc(-c2ccsc2)cc1N
REMARK SMILES IDX 4 1 5 2 6 3 12 4 13 5 2 6 1 7 3 8 14 11 7 14 8 15 11 16 9 17
REMARK SMILES IDX 10 18
REMARK H PARENT 1 9 1 10 14 12 14 13
ROOT
ATOM      1  C   UNL     1      -1.750  -0.044   0.491  1.00  0.00     0.115 A 
ATOM      2  S   UNL     1      -0.423   1.045   0.570  1.00  0.00    -0.128 S 
ATOM      3  C   UNL     1       0.624  -0.041  -0.229  1.00  0.00     0.038 A 
ATOM      4  C   UNL     1      -0.016  -1.217  -0.553  1.00  0.00     0.046 A 
ATOM      5  C   UNL     1      -1.374  -1.217  -0.137  1.00  0.00     0.056 A 
ENDROOT
BRANCH   1   6
ATOM      6  C   UNL     1      -3.057   0.304   1.026  1.00  0.00     0.260 C 
ATOM      7  N   UNL     1      -3.168   1.509   1.667  1.00  0.00    -0.365 N 
ATOM      8  O   UNL     1      -4.057  -0.408   0.939  1.00  0.00    -0.269 OA
ATOM      9  H   UNL     1      -2.376   2.123   1.790  1.00  0.00     0.159 HD
ATOM     10  H   UNL     1      -4.064   1.755   2.061  1.00  0.00     0.159 HD
ENDBRANCH   1   6
BRANCH   5  11
ATOM     11  N   UNL     1      -2.195  -2.268  -0.338  1.00  0.00    -0.397 N 
ATOM     12  H   UNL     1      -3.194  -2.185  -0.131  1.00  0.00     0.156 HD
ATOM     13  H   UNL     1      -1.969  -3.036  -0.960  1.00  0.00     0.156 HD
ENDBRANCH   5  11
BRANCH   3  14
ATOM     14  C   UNL     1       2.134   0.280  -0.548  1.00  0.00     0.002 A 
ATOM     15  C   UNL     1       2.805   1.497  -0.217  1.00  0.00     0.021 A 
ATOM     16  C   UNL     1       2.976  -0.602  -1.193  1.00  0.00     0.074 A 
ATOM     17  C   UNL     1       4.123   1.494  -0.620  1.00  0.00     0.065 A 
ATOM     18  S   UNL     1       4.554   0.033  -1.395  1.00  0.00    -0.152 S 
ENDBRANCH   3  14
TORSDOF 3
