REMARK SMILES O=S(=O)(O)CCSSCCS(=O)(=O)O
REMARK SMILES IDX 7 1 6 2 5 3 2 4 1 5 3 6 4 7 8 9 9 10 10 11 11 12 12 13 13 14
REMARK SMILES IDX 14 15
REMARK H PARENT 4 8 14 16
ROOT
ATOM      1  S   UNL     1       0.650  -1.640  -1.455  1.00  0.00    -0.093 SA
ENDROOT
BRANCH   1   2
ATOM      2  C   UNL     1       2.204  -0.758  -1.058  1.00  0.00     0.100 C 
BRANCH   2   3
ATOM      3  C   UNL     1       2.018   0.348  -0.040  1.00  0.00     0.179 C 
BRANCH   3   4
ATOM      4  S   UNL     1       3.591   1.028   0.454  1.00  0.00     0.265 S 
ATOM      5  O   UNL     1       4.419   1.255  -0.706  1.00  0.00    -0.200 OA
ATOM      6  O   UNL     1       3.379   2.039   1.464  1.00  0.00    -0.200 OA
BRANCH   4   7
ATOM      7  O   UNL     1       4.168  -0.256   1.245  1.00  0.00    -0.286 OA
ATOM      8  H   UNL     1       4.422   0.035   2.148  1.00  0.00     0.234 HD
ENDBRANCH   4   7
ENDBRANCH   3   4
ENDBRANCH   2   3
ENDBRANCH   1   2
BRANCH   1   9
ATOM      9  S   UNL     1      -0.519  -0.212  -2.365  1.00  0.00    -0.093 SA
BRANCH   9  10
ATOM     10  C   UNL     1      -1.554   0.424  -1.000  1.00  0.00     0.100 C 
BRANCH  10  11
ATOM     11  C   UNL     1      -2.552  -0.612  -0.520  1.00  0.00     0.179 C 
BRANCH  11  12
ATOM     12  S   UNL     1      -3.518   0.083   0.807  1.00  0.00     0.265 S 
ATOM     13  O   UNL     1      -2.670   0.303   1.954  1.00  0.00    -0.200 OA
ATOM     14  O   UNL     1      -4.401   1.099   0.283  1.00  0.00    -0.200 OA
BRANCH  12  15
ATOM     15  O   UNL     1      -4.450  -1.200   1.108  1.00  0.00    -0.286 OA
ATOM     16  H   UNL     1      -5.389  -0.916   1.054  1.00  0.00     0.234 HD
ENDBRANCH  12  15
ENDBRANCH  11  12
ENDBRANCH  10  11
ENDBRANCH   9  10
ENDBRANCH   1   9
TORSDOF 9
