REMARK SMILES N#Cc1ccc(N(Cc2ccc(Br)cc2)n2cnnc2)cc1
REMARK SMILES IDX 8 1 7 2 6 3 1 4 2 5 3 6 4 7 22 8 5 9 21 10 16 11 17 12 20 13
REMARK SMILES IDX 18 14 19 15 9 16 10 17 15 18 11 19 14 20 12 21 13 22
REMARK H PARENT
ROOT
ATOM      1  C   UNL     1       0.736  -1.038   1.055  1.00  0.00     0.178 C 
ENDROOT
BRANCH   1   2
ATOM      2  N   UNL     1      -0.342  -0.920   0.065  1.00  0.00    -0.274 N 
BRANCH   2   3
ATOM      3  C   UNL     1      -1.506  -0.158   0.255  1.00  0.00     0.058 A 
ATOM      4  N   UNL     1      -6.061   2.761   0.891  1.00  0.00    -0.192 NA
ATOM      5  C   UNL     1      -5.093   2.138   0.750  1.00  0.00     0.099 C 
ATOM      6  C   UNL     1      -3.895   1.369   0.582  1.00  0.00     0.052 A 
ATOM      7  C   UNL     1      -3.660   0.674  -0.601  1.00  0.00     0.021 A 
ATOM      8  C   UNL     1      -2.947   1.307   1.601  1.00  0.00     0.021 A 
ATOM      9  C   UNL     1      -2.485  -0.075  -0.756  1.00  0.00     0.029 A 
ATOM     10  C   UNL     1      -1.774   0.554   1.436  1.00  0.00     0.029 A 
ENDBRANCH   2   3
BRANCH   2  11
ATOM     11  N   UNL     1      -0.090  -1.657  -1.092  1.00  0.00    -0.227 N 
ATOM     12  C   UNL     1      -0.425  -2.962  -1.330  1.00  0.00     0.247 A 
ATOM     13  C   UNL     1       0.546  -1.241  -2.229  1.00  0.00     0.247 A 
ATOM     14  N   UNL     1      -0.008  -3.321  -2.523  1.00  0.00    -0.137 NA
ATOM     15  N   UNL     1       0.607  -2.229  -3.094  1.00  0.00    -0.137 NA
ENDBRANCH   2  11
ENDBRANCH   1   2
BRANCH   1  16
ATOM     16  C   UNL     1       1.922  -0.162   0.702  1.00  0.00    -0.026 A 
ATOM     17  C   UNL     1       3.117  -0.740   0.242  1.00  0.00     0.007 A 
ATOM     18  C   UNL     1       1.847   1.235   0.811  1.00  0.00     0.007 A 
ATOM     19  C   UNL     1       4.210   0.060  -0.099  1.00  0.00     0.016 A 
ATOM     20  C   UNL     1       2.940   2.036   0.471  1.00  0.00     0.016 A 
ATOM     21  C   UNL     1       4.117   1.444   0.018  1.00  0.00     0.017 A 
ATOM     22  Br  UNL     1       5.595   2.527  -0.444  1.00  0.00    -0.051 Br
ENDBRANCH   1  16
TORSDOF 4
