REMARK SMILES Clc1ccc(C(c2ccc(Cl)cc2)C(Cl)(Cl)Cl)cc1
REMARK SMILES IDX 6 1 5 2 2 3 3 4 19 5 4 6 18 7 1 8 7 9 8 10 13 11 9 12 12 13
REMARK SMILES IDX 10 14 11 15 14 16 15 17 16 18 17 19
REMARK H PARENT
ROOT
ATOM      1  C   UNL     1      -0.251  -0.951  -0.709  1.00  0.00     0.101 C 
ENDROOT
BRANCH   1   2
ATOM      2  C   UNL     1       1.137  -0.316  -0.515  1.00  0.00    -0.036 A 
ATOM      3  C   UNL     1       3.678   0.848  -0.213  1.00  0.00     0.041 A 
ATOM      4  C   UNL     1       3.190   0.573  -1.487  1.00  0.00     0.021 A 
ATOM      5  C   UNL     1       2.912   0.553   0.911  1.00  0.00     0.021 A 
ATOM      6  C   UNL     1       1.926  -0.003  -1.638  1.00  0.00     0.006 A 
ATOM      7  C   UNL     1       1.648  -0.024   0.761  1.00  0.00     0.006 A 
ATOM      8  Cl  UNL     1       5.233   1.559  -0.027  1.00  0.00    -0.084 Cl
ENDBRANCH   1   2
BRANCH   1   9
ATOM      9  C   UNL     1      -1.334  -0.127   0.013  1.00  0.00    -0.036 A 
ATOM     10  C   UNL     1      -1.889  -0.475   1.255  1.00  0.00     0.006 A 
ATOM     11  C   UNL     1      -1.770   1.072  -0.590  1.00  0.00     0.006 A 
ATOM     12  C   UNL     1      -2.858   0.333   1.860  1.00  0.00     0.021 A 
ATOM     13  C   UNL     1      -2.737   1.879   0.015  1.00  0.00     0.021 A 
ATOM     14  C   UNL     1      -3.279   1.504   1.238  1.00  0.00     0.041 A 
ATOM     15  Cl  UNL     1      -4.469   2.494   1.989  1.00  0.00    -0.084 Cl
ENDBRANCH   1   9
BRANCH   1  16
ATOM     16  C   UNL     1      -0.264  -2.518  -0.568  1.00  0.00     0.201 C 
ATOM     17  Cl  UNL     1       0.787  -3.279  -1.841  1.00  0.00    -0.083 Cl
ATOM     18  Cl  UNL     1      -1.921  -3.186  -0.848  1.00  0.00    -0.083 Cl
ATOM     19  Cl  UNL     1       0.324  -3.135   1.016  1.00  0.00    -0.083 Cl
ENDBRANCH   1  16
TORSDOF 3
