REMARK SMILES O/N=C/c1cc[n+](COC[n+]2ccc(/C=N/O)cc2)cc1
REMARK SMILES IDX 9 1 8 2 7 3 4 4 5 5 21 6 6 7 20 8 3 9 2 10 1 11 10 13 11 14
REMARK SMILES IDX 12 15 19 16 13 17 18 18 14 19 15 20 16 21 17 22
REMARK H PARENT 1 12 17 23
ROOT
ATOM      1  O   UNL     1       0.069  -0.804   0.960  1.00  0.00    -0.262 OA
ENDROOT
BRANCH   1   2
ATOM      2  C   UNL     1      -1.047  -1.493   1.522  1.00  0.00     0.537 C 
BRANCH   2   3
ATOM      3  N   UNL     1      -2.298  -0.932   0.959  1.00  0.00    -0.180 N 
ATOM      4  C   UNL     1      -4.625   0.092  -0.113  1.00  0.00     0.008 A 
ATOM      5  C   UNL     1      -4.349   0.262   1.238  1.00  0.00     0.080 A 
ATOM      6  C   UNL     1      -3.726  -0.597  -0.921  1.00  0.00     0.080 A 
ATOM      7  C   UNL     1      -3.169  -0.264   1.755  1.00  0.00     0.311 A 
ATOM      8  C   UNL     1      -2.564  -1.103  -0.359  1.00  0.00     0.311 A 
BRANCH   4   9
ATOM      9  C   UNL     1      -5.869   0.646  -0.677  1.00  0.00     0.162 C 
ATOM     10  N   UNL     1      -6.142   0.519  -1.934  1.00  0.00    -0.097 NA
BRANCH  10  11
ATOM     11  O   UNL     1      -7.373   1.138  -2.181  1.00  0.00    -0.411 OA
ATOM     12  H   UNL     1      -7.513   0.989  -3.136  1.00  0.00     0.330 HD
ENDBRANCH  10  11
ENDBRANCH   4   9
ENDBRANCH   2   3
ENDBRANCH   1   2
BRANCH   1  13
ATOM     13  C   UNL     1       1.307  -1.262   1.500  1.00  0.00     0.537 C 
BRANCH  13  14
ATOM     14  N   UNL     1       2.417  -0.567   0.809  1.00  0.00    -0.180 N 
ATOM     15  C   UNL     1       3.110  -1.202  -0.167  1.00  0.00     0.311 A 
ATOM     16  C   UNL     1       2.729   0.706   1.156  1.00  0.00     0.311 A 
ATOM     17  C   UNL     1       4.152  -0.566  -0.827  1.00  0.00     0.080 A 
ATOM     18  C   UNL     1       3.765   1.386   0.525  1.00  0.00     0.080 A 
ATOM     19  C   UNL     1       4.480   0.740  -0.475  1.00  0.00     0.008 A 
BRANCH  19  20
ATOM     20  C   UNL     1       5.578   1.448  -1.157  1.00  0.00     0.162 C 
ATOM     21  N   UNL     1       6.247   0.878  -2.106  1.00  0.00    -0.097 NA
BRANCH  21  22
ATOM     22  O   UNL     1       7.216   1.778  -2.563  1.00  0.00    -0.411 OA
ATOM     23  H   UNL     1       7.681   1.274  -3.259  1.00  0.00     0.330 HD
ENDBRANCH  21  22
ENDBRANCH  19  20
ENDBRANCH  13  14
ENDBRANCH   1  13
TORSDOF 8
