REMARK SMILES C#CC[C@H](Cc1cnc2nc(N)nc(N)c2n1)c1ccc(C(=O)N[C@@H](CCC(=O)O)C(=O)O)cc1
REMARK SMILES IDX 22 1 23 2 24 3 21 5 18 6 19 7 35 8 20 9 34 10 4 11 3 12 2 13
REMARK SMILES IDX 1 14 5 15 6 16 7 17 17 18 8 19 16 20 9 21 14 22 10 23 13 24
REMARK SMILES IDX 11 25 15 26 12 29 25 32 26 33 27 34 28 35 29 36 30 37 31 39
REMARK SMILES IDX 32 40 33 41
REMARK H PARENT 24 4 15 27 15 28 12 30 12 31 30 38 33 42
ROOT
ATOM      1  C   UNL     1       3.913   1.038   0.235  1.00  0.00     0.251 C 
ATOM      2  O   UNL     1       4.469   2.060   0.618  1.00  0.00    -0.269 OA
ATOM      3  N   UNL     1       4.595  -0.059  -0.257  1.00  0.00    -0.339 N 
ATOM      4  H   UNL     1       4.087  -0.629  -0.921  1.00  0.00     0.164 HD
ENDROOT
BRANCH   1   5
ATOM      5  C   UNL     1       2.426   0.946   0.228  1.00  0.00     0.039 A 
ATOM      6  C   UNL     1      -0.395   0.862   0.223  1.00  0.00    -0.044 A 
ATOM      7  C   UNL     1       0.287   2.089   0.206  1.00  0.00     0.005 A 
ATOM      8  C   UNL     1       0.359  -0.322   0.263  1.00  0.00     0.005 A 
ATOM      9  C   UNL     1       1.684   2.131   0.210  1.00  0.00     0.014 A 
ATOM     10  C   UNL     1       1.757  -0.282   0.268  1.00  0.00     0.014 A 
BRANCH   6  11
ATOM     11  C   UNL     1      -1.922   0.854   0.229  1.00  0.00     0.037 C 
BRANCH  11  12
ATOM     12  C   UNL     1      -2.488   0.723   1.662  1.00  0.00     0.098 C 
ATOM     13  C   UNL     1      -2.315  -0.609   2.268  1.00  0.00    -0.106 C 
ATOM     14  C   UNL     1      -2.185  -1.691   2.772  1.00  0.00     0.004 C 
ENDBRANCH  11  12
BRANCH  11  15
ATOM     15  C   UNL     1      -2.507  -0.160  -0.782  1.00  0.00     0.067 C 
BRANCH  15  16
ATOM     16  C   UNL     1      -3.973   0.056  -1.042  1.00  0.00     0.060 A 
ATOM     17  C   UNL     1      -4.419   0.960  -1.988  1.00  0.00     0.137 A 
ATOM     18  N   UNL     1      -4.856  -0.637  -0.296  1.00  0.00    -0.244 NA
ATOM     19  N   UNL     1      -5.732   1.193  -2.218  1.00  0.00    -0.233 NA
ATOM     20  C   UNL     1      -6.183  -0.414  -0.545  1.00  0.00     0.150 A 
ATOM     21  C   UNL     1      -6.629   0.505  -1.502  1.00  0.00     0.185 A 
ATOM     22  C   UNL     1      -7.214  -1.045   0.144  1.00  0.00     0.157 A 
ATOM     23  N   UNL     1      -7.915   0.748  -1.734  1.00  0.00    -0.191 NA
ATOM     24  N   UNL     1      -8.517  -0.815  -0.077  1.00  0.00    -0.194 NA
ATOM     25  C   UNL     1      -8.809   0.067  -1.028  1.00  0.00     0.224 A 
BRANCH  22  26
ATOM     26  N   UNL     1      -6.930  -2.040   1.094  1.00  0.00    -0.382 N 
ATOM     27  H   UNL     1      -6.150  -1.780   1.691  1.00  0.00     0.158 HD
ATOM     28  H   UNL     1      -7.779  -2.299   1.584  1.00  0.00     0.158 HD
ENDBRANCH  22  26
BRANCH  25  29
ATOM     29  N   UNL     1     -10.140   0.322  -1.270  1.00  0.00    -0.368 N 
ATOM     30  H   UNL     1     -10.706   0.095  -0.466  1.00  0.00     0.159 HD
ATOM     31  H   UNL     1     -10.261   1.233  -1.692  1.00  0.00     0.159 HD
ENDBRANCH  25  29
ENDBRANCH  15  16
ENDBRANCH  11  15
ENDBRANCH   6  11
ENDBRANCH   1   5
BRANCH   3  32
ATOM     32  C   UNL     1       6.045   0.023  -0.472  1.00  0.00     0.192 C 
BRANCH  32  33
ATOM     33  C   UNL     1       6.647  -1.388  -0.377  1.00  0.00     0.049 C 
BRANCH  33  34
ATOM     34  C   UNL     1       8.169  -1.412  -0.208  1.00  0.00     0.125 C 
BRANCH  34  35
ATOM     35  C   UNL     1       8.608  -0.911   1.141  1.00  0.00     0.303 C 
ATOM     36  O   UNL     1       7.905  -0.705   2.114  1.00  0.00    -0.252 OA
BRANCH  35  37
ATOM     37  O   UNL     1       9.940  -0.722   1.201  1.00  0.00    -0.481 OA
ATOM     38  H   UNL     1      10.096  -0.396   2.112  1.00  0.00     0.296 HD
ENDBRANCH  35  37
ENDBRANCH  34  35
ENDBRANCH  33  34
ENDBRANCH  32  33
BRANCH  32  39
ATOM     39  C   UNL     1       6.336   0.626  -1.855  1.00  0.00     0.326 C 
ATOM     40  O   UNL     1       7.429   0.981  -2.271  1.00  0.00    -0.250 OA
BRANCH  39  41
ATOM     41  O   UNL     1       5.266   0.658  -2.683  1.00  0.00    -0.480 OA
ATOM     42  H   UNL     1       5.617   1.081  -3.495  1.00  0.00     0.296 HD
ENDBRANCH  39  41
ENDBRANCH  32  39
ENDBRANCH   3  32
TORSDOF 14
