REMARK SMILES C/C=C1\NC(=O)[C@H]2CSSCC/C=C/[C@H](CC(=O)N[C@H](C(C)C)C(=O)N2)OC(=O)[C@H](C(C)C)NC1=O
REMARK SMILES IDX 24 1 25 2 26 3 7 5 5 6 4 7 6 8 3 10 2 11 1 12 35 13 34 14
REMARK SMILES IDX 36 15 30 17 31 19 32 20 33 21 8 22 9 23 10 24 11 25 12 26
REMARK SMILES IDX 20 28 19 29 17 30 18 31 16 33 15 34 14 35 13 36 27 38 28 39
REMARK SMILES IDX 29 40 21 42 22 43 23 44
REMARK H PARENT 26 4 4 9 34 16 19 32
REMARK Flexibility Score:   79.800
ROOT
ATOM      1  C   UNL     1      -2.872   0.588  -0.267  1.00  0.00     0.243 C 
ATOM      2  O   UNL     1      -3.656   0.839  -1.176  1.00  0.00    -0.273 OA
ATOM      3  N   UNL     1      -1.586   1.068  -0.250  1.00  0.00    -0.342 N 
ATOM      4  H   UNL     1      -1.049   0.920   0.614  1.00  0.00     0.164 HD
ENDROOT
BRANCH   3   5
ATOM      5  C   UNL     1      -1.006   2.009  -1.216  1.00  0.00     0.182 C 
BRANCH   5   6
ATOM      6  C   UNL     1       0.378   2.355  -0.613  1.00  0.00     0.247 C 
ATOM      7  N   UNL     1       1.351   2.815  -1.461  1.00  0.00    -0.320 N 
ATOM      8  O   UNL     1       0.570   2.223   0.599  1.00  0.00    -0.272 OA
ATOM      9  H   UNL     1       1.039   3.233  -2.325  1.00  0.00     0.170 HD
BRANCH   7  10
ATOM     10  C   UNL     1       2.723   2.818  -1.253  1.00  0.00     0.102 C 
ATOM     11  C   UNL     1       3.519   3.576  -2.037  1.00  0.00     0.001 C 
ATOM     12  C   UNL     1       3.135   4.556  -3.101  1.00  0.00     0.038 C 
BRANCH  10  13
ATOM     13  C   UNL     1       3.481   1.904  -0.273  1.00  0.00     0.268 C 
ATOM     14  N   UNL     1       2.783   0.904   0.348  1.00  0.00    -0.337 N 
ATOM     15  O   UNL     1       4.694   2.029  -0.101  1.00  0.00    -0.268 OA
ATOM     16  H   UNL     1       1.777   0.991   0.419  1.00  0.00     0.164 HD
BRANCH  14  17
ATOM     17  C   UNL     1       3.392  -0.045   1.288  1.00  0.00     0.195 CG1
ATOM     18  G   UNL     1       2.615  -1.385   1.341  1.00  0.00     0.000 G1
BRANCH  17  19
ATOM     19  C   UNL     1       3.584   0.605   2.682  1.00  0.00     0.017 C 
ATOM     20  C   UNL     1       4.627  -0.136   3.523  1.00  0.00     0.010 C 
ATOM     21  C   UNL     1       2.279   0.750   3.468  1.00  0.00     0.010 C 
ENDBRANCH  17  19
ENDBRANCH  14  17
ENDBRANCH  10  13
ENDBRANCH   7  10
ENDBRANCH   5   6
BRANCH   5  22
ATOM     22  C   UNL     1      -0.987   1.467  -2.655  1.00  0.00     0.116 C 
BRANCH  22  23
ATOM     23  S   UNL     1       0.207   0.107  -2.917  1.00  0.00    -0.091 SA
BRANCH  23  24
ATOM     24  S   UNL     1      -0.535  -0.851  -4.571  1.00  0.00    -0.094 SA
BRANCH  24  25
ATOM     25  C   UNL     1      -1.629  -2.138  -3.862  1.00  0.00     0.086 C 
BRANCH  25  26
ATOM     26  C   UNL     1      -0.866  -3.286  -3.187  1.00  0.00     0.039 CG0
ATOM     27  G   UNL     1      -0.671  -3.110  -1.701  1.00  0.00     0.000 G0
ENDBRANCH  25  26
ENDBRANCH  24  25
ENDBRANCH  23  24
ENDBRANCH  22  23
ENDBRANCH   5  22
ENDBRANCH   3   5
BRANCH   1  28
ATOM     28  C   UNL     1      -3.222  -0.283   0.976  1.00  0.00     0.173 C 
BRANCH  28  29
ATOM     29  N   UNL     1      -2.343  -1.464   0.964  1.00  0.00    -0.344 N 
ATOM     30  C   UNL     1      -1.057  -1.420   1.449  1.00  0.00     0.224 C 
ATOM     31  O   UNL     1      -0.589  -0.398   1.946  1.00  0.00    -0.275 OA
ATOM     32  H   UNL     1      -2.627  -2.243   0.389  1.00  0.00     0.164 HD
BRANCH  30  33
ATOM     33  C   UNL     1      -0.269  -2.707   1.355  1.00  0.00     0.149 C 
BRANCH  33  34
ATOM     34  C   UNL     1       0.872  -2.670   0.328  1.00  0.00     0.208 C 
BRANCH  34  35
ATOM     35  C   UNL     1       0.518  -2.852  -1.131  1.00  0.00     0.014 C 
ATOM     36  C   UNL     1      -0.671  -3.110  -1.701  1.00  0.00    -0.027 CG0
ATOM     37  G   UNL     1      -0.866  -3.286  -3.187  1.00  0.00     0.000 G0
ENDBRANCH  34  35
BRANCH  34  38
ATOM     38  O   UNL     1       1.619  -1.439   0.407  1.00  0.00    -0.456 OA
BRANCH  38  39
ATOM     39  C   UNL     1       2.615  -1.385   1.341  1.00  0.00     0.329 CG1
ATOM     40  O   UNL     1       2.884  -2.313   2.096  1.00  0.00    -0.250 OA
ATOM     41  G   UNL     1       3.392  -0.045   1.288  1.00  0.00     0.000 G1
ENDBRANCH  38  39
ENDBRANCH  34  38
ENDBRANCH  33  34
ENDBRANCH  30  33
ENDBRANCH  28  29
BRANCH  28  42
ATOM     42  C   UNL     1      -4.714  -0.691   1.015  1.00  0.00     0.015 C 
ATOM     43  C   UNL     1      -4.994  -1.733   2.107  1.00  0.00     0.010 C 
ATOM     44  C   UNL     1      -5.614   0.527   1.268  1.00  0.00     0.010 C 
ENDBRANCH  28  42
ENDBRANCH   1  28
TORSDOF 2
