REMARK SMILES O=C(O)c1ccc(N2C(=O)/C(=C/c3ccc(-c4ccc([N+](=O)[O-])cc4)o3)C=C2c2ccccc2)cc1
REMARK SMILES IDX 8 1 9 2 10 3 11 4 12 5 27 6 28 7 7 8 4 9 5 10 36 11 6 12
REMARK SMILES IDX 35 13 2 14 1 15 3 16 29 18 30 19 34 20 31 21 33 22 32 23
REMARK SMILES IDX 13 24 14 25 26 26 15 27 16 28 17 29 18 30 25 31 19 32 24 33
REMARK SMILES IDX 20 34 21 35 22 36 23 37
REMARK H PARENT 3 17
ROOT
ATOM      1  N   UNL     1      -2.315  -0.243  -0.699  1.00  0.00    -0.276 N 
ATOM      2  C   UNL     1      -1.235  -0.845  -1.396  1.00  0.00     0.263 C 
ATOM      3  O   UNL     1      -1.176  -1.359  -2.499  1.00  0.00    -0.268 OA
ATOM      4  C   UNL     1      -0.067  -0.693  -0.465  1.00  0.00     0.046 C 
ATOM      5  C   UNL     1       1.146  -1.143  -0.811  1.00  0.00     0.061 C 
ATOM      6  C   UNL     1      -0.549  -0.015   0.706  1.00  0.00     0.041 C 
ATOM      7  C   UNL     1      -1.858   0.229   0.535  1.00  0.00     0.057 C 
ENDROOT
BRANCH   1   8
ATOM      8  C   UNL     1      -3.616  -0.125  -1.283  1.00  0.00     0.049 A 
ATOM      9  C   UNL     1      -6.195   0.090  -2.449  1.00  0.00     0.060 A 
ATOM     10  C   UNL     1      -5.339  -0.950  -2.814  1.00  0.00     0.018 A 
ATOM     11  C   UNL     1      -5.763   1.029  -1.511  1.00  0.00     0.018 A 
ATOM     12  C   UNL     1      -4.064  -1.050  -2.239  1.00  0.00     0.027 A 
ATOM     13  C   UNL     1      -4.487   0.921  -0.940  1.00  0.00     0.027 A 
BRANCH   9  14
ATOM     14  C   UNL     1      -7.535   0.160  -3.081  1.00  0.00     0.335 C 
ATOM     15  O   UNL     1      -7.983  -0.628  -3.893  1.00  0.00    -0.246 OA
BRANCH  14  16
ATOM     16  O   UNL     1      -8.255   1.216  -2.662  1.00  0.00    -0.478 OA
ATOM     17  H   UNL     1      -9.096   1.134  -3.158  1.00  0.00     0.297 HD
ENDBRANCH  14  16
ENDBRANCH   9  14
ENDBRANCH   1   8
BRANCH   7  18
ATOM     18  C   UNL     1      -2.671   0.798   1.611  1.00  0.00    -0.001 A 
ATOM     19  C   UNL     1      -3.687   0.039   2.209  1.00  0.00     0.010 A 
ATOM     20  C   UNL     1      -2.423   2.096   2.083  1.00  0.00     0.010 A 
ATOM     21  C   UNL     1      -4.452   0.574   3.247  1.00  0.00     0.001 A 
ATOM     22  C   UNL     1      -3.190   2.629   3.121  1.00  0.00     0.001 A 
ATOM     23  C   UNL     1      -4.204   1.868   3.701  1.00  0.00     0.000 A 
ENDBRANCH   7  18
BRANCH   5  24
ATOM     24  C   UNL     1       2.311  -1.062  -0.002  1.00  0.00     0.128 A 
ATOM     25  C   UNL     1       2.495  -1.187   1.369  1.00  0.00     0.051 A 
ATOM     26  O   UNL     1       3.557  -0.878  -0.560  1.00  0.00    -0.457 OA
ATOM     27  C   UNL     1       3.877  -1.043   1.642  1.00  0.00     0.051 A 
ATOM     28  C   UNL     1       4.497  -0.853   0.427  1.00  0.00     0.134 A 
BRANCH  28  29
ATOM     29  C   UNL     1       5.880  -0.649  -0.001  1.00  0.00     0.018 A 
ATOM     30  C   UNL     1       6.203  -0.478  -1.358  1.00  0.00     0.019 A 
ATOM     31  C   UNL     1       6.921  -0.619   0.941  1.00  0.00     0.019 A 
ATOM     32  C   UNL     1       7.527  -0.282  -1.769  1.00  0.00     0.086 A 
ATOM     33  C   UNL     1       8.250  -0.424   0.544  1.00  0.00     0.086 A 
ATOM     34  C   UNL     1       8.547  -0.256  -0.813  1.00  0.00     0.269 A 
BRANCH  34  35
ATOM     35  N   UNL     1       9.939  -0.051  -1.235  1.00  0.00     0.062 N 
ATOM     36  O   UNL     1      10.159   0.095  -2.446  1.00  0.00    -0.258 OA
ATOM     37  O   UNL     1      10.811  -0.034  -0.354  1.00  0.00    -0.258 OA
ENDBRANCH  34  35
ENDBRANCH  28  29
ENDBRANCH   5  24
TORSDOF 7
