REMARK SMILES CNC(=O)[C@@H](NC(=O)[C@H](CC(C)C)[C@H](O)C(=O)NO)C(C)(C)C
REMARK SMILES IDX 9 1 7 2 6 3 8 4 5 6 3 7 2 8 4 9 1 10 20 12 21 13 22 14 23 15
REMARK SMILES IDX 10 16 11 17 12 18 13 19 14 20 15 21 16 23 17 24 18 25 19 27
REMARK H PARENT 6 5 2 11 15 22 18 26 19 28
ROOT
ATOM      1  C   UNL     1       1.447  -0.344   0.504  1.00  0.00     0.117 C 
ENDROOT
BRANCH   1   2
ATOM      2  C   UNL     1       0.181   0.516   0.432  1.00  0.00     0.226 C 
ATOM      3  N   UNL     1      -0.952  -0.178   0.049  1.00  0.00    -0.343 N 
ATOM      4  O   UNL     1       0.151   1.708   0.722  1.00  0.00    -0.275 OA
ATOM      5  H   UNL     1      -0.979  -1.156   0.319  1.00  0.00     0.164 HD
BRANCH   3   6
ATOM      6  C   UNL     1      -2.263   0.477   0.105  1.00  0.00     0.176 C 
BRANCH   6   7
ATOM      7  C   UNL     1      -2.825   0.144   1.508  1.00  0.00     0.242 C 
ATOM      8  N   UNL     1      -3.603   1.133   2.073  1.00  0.00    -0.357 N 
ATOM      9  O   UNL     1      -2.606  -0.940   2.053  1.00  0.00    -0.273 OA
ATOM     10  C   UNL     1      -4.101   0.990   3.418  1.00  0.00     0.142 C 
ATOM     11  H   UNL     1      -3.486   2.074   1.718  1.00  0.00     0.163 HD
ENDBRANCH   6   7
BRANCH   6  12
ATOM     12  C   UNL     1      -3.194   0.031  -1.063  1.00  0.00    -0.009 C 
ATOM     13  C   UNL     1      -2.525   0.392  -2.408  1.00  0.00     0.013 C 
ATOM     14  C   UNL     1      -4.542   0.776  -0.996  1.00  0.00     0.013 C 
ATOM     15  C   UNL     1      -3.472  -1.484  -1.051  1.00  0.00     0.013 C 
ENDBRANCH   6  12
ENDBRANCH   3   6
ENDBRANCH   1   2
BRANCH   1  16
ATOM     16  C   UNL     1       2.613   0.465   1.126  1.00  0.00     0.019 C 
BRANCH  16  17
ATOM     17  C   UNL     1       3.856  -0.361   1.524  1.00  0.00    -0.017 C 
ATOM     18  C   UNL     1       4.982  -0.226   0.496  1.00  0.00     0.007 C 
ATOM     19  C   UNL     1       4.382   0.097   2.890  1.00  0.00     0.007 C 
ENDBRANCH  16  17
ENDBRANCH   1  16
BRANCH   1  20
ATOM     20  C   UNL     1       1.724  -1.005  -0.857  1.00  0.00     0.217 C 
BRANCH  20  21
ATOM     21  O   UNL     1       2.624  -2.113  -0.715  1.00  0.00    -0.382 OA
ATOM     22  H   UNL     1       2.201  -2.763  -0.126  1.00  0.00     0.211 HD
ENDBRANCH  20  21
BRANCH  20  23
ATOM     23  C   UNL     1       2.224  -0.031  -1.936  1.00  0.00     0.272 C 
ATOM     24  O   UNL     1       1.955   1.166  -1.989  1.00  0.00    -0.270 OA
ATOM     25  N   UNL     1       2.966  -0.658  -2.917  1.00  0.00    -0.236 N 
ATOM     26  H   UNL     1       3.502  -1.479  -2.641  1.00  0.00     0.198 HD
BRANCH  25  27
ATOM     27  O   UNL     1       3.577   0.215  -3.851  1.00  0.00    -0.289 OA
ATOM     28  H   UNL     1       3.230   1.093  -3.578  1.00  0.00     0.246 HD
ENDBRANCH  25  27
ENDBRANCH  20  23
ENDBRANCH   1  20
TORSDOF 10
