REMARK SMILES NCCCNCCCCNCCCN
REMARK SMILES IDX 7 1 6 2 5 3 4 5 3 6 2 7 1 8 8 11 9 12 10 13 11 15 12 16
REMARK SMILES IDX 13 17 14 18
REMARK H PARENT 5 4 1 9 1 10 10 14 14 19 14 20
ROOT
ATOM      1  C   UNL     1      -0.804   0.410   0.161  1.00  0.00     0.017 C 
ENDROOT
BRANCH   1   2
ATOM      2  C   UNL     1      -1.322   0.451  -1.281  1.00  0.00     0.081 C 
BRANCH   2   3
ATOM      3  N   UNL     1      -2.771   0.291  -1.370  1.00  0.00    -0.317 NA
ATOM      4  H   UNL     1      -3.235   0.828  -0.626  1.00  0.00     0.122 HD
BRANCH   3   5
ATOM      5  C   UNL     1      -3.204  -1.100  -1.252  1.00  0.00     0.082 C 
BRANCH   5   6
ATOM      6  C   UNL     1      -4.732  -1.194  -1.146  1.00  0.00     0.030 C 
BRANCH   6   7
ATOM      7  C   UNL     1      -5.306  -0.698   0.187  1.00  0.00     0.079 C 
BRANCH   7   8
ATOM      8  N   UNL     1      -5.102   0.733   0.404  1.00  0.00    -0.330 NA
ATOM      9  H   UNL     1      -5.523   1.249  -0.370  1.00  0.00     0.118 HD
ATOM     10  H   UNL     1      -5.611   1.019   1.241  1.00  0.00     0.118 HD
ENDBRANCH   7   8
ENDBRANCH   6   7
ENDBRANCH   5   6
ENDBRANCH   3   5
ENDBRANCH   2   3
ENDBRANCH   1   2
BRANCH   1  11
ATOM     11  C   UNL     1       0.707   0.652   0.209  1.00  0.00     0.017 C 
BRANCH  11  12
ATOM     12  C   UNL     1       1.225   0.611   1.649  1.00  0.00     0.081 C 
BRANCH  12  13
ATOM     13  N   UNL     1       2.649   0.924   1.765  1.00  0.00    -0.317 NA
ATOM     14  H   UNL     1       2.847   1.825   1.331  1.00  0.00     0.122 HD
BRANCH  13  15
ATOM     15  C   UNL     1       3.532  -0.118   1.240  1.00  0.00     0.082 C 
BRANCH  15  16
ATOM     16  C   UNL     1       4.244   0.328  -0.042  1.00  0.00     0.030 C 
BRANCH  16  17
ATOM     17  C   UNL     1       5.128  -0.765  -0.649  1.00  0.00     0.079 C 
BRANCH  17  18
ATOM     18  N   UNL     1       6.289  -1.096   0.168  1.00  0.00    -0.330 NA
ATOM     19  H   UNL     1       6.818  -0.249   0.377  1.00  0.00     0.118 HD
ATOM     20  H   UNL     1       5.996  -1.473   1.068  1.00  0.00     0.118 HD
ENDBRANCH  17  18
ENDBRANCH  16  17
ENDBRANCH  15  16
ENDBRANCH  13  15
ENDBRANCH  12  13
ENDBRANCH  11  12
ENDBRANCH   1  11
TORSDOF 13
