REMARK SMILES CCn1c(=O)/c(=C2\Sc3ccccc3N2C)s/c1=C/c1cccc[n+]1CC
REMARK SMILES IDX 3 1 4 2 5 3 6 4 7 5 8 6 9 7 10 8 11 9 12 10 13 11 14 12
REMARK SMILES IDX 15 13 16 14 17 15 18 16 19 17 2 18 1 19 20 20 21 21 25 22
REMARK SMILES IDX 22 23 24 24 23 25 26 26 27 27
REMARK H PARENT
ROOT
ATOM      1  N   UNL     1      -0.609  -0.104  -1.414  1.00  0.00    -0.299 N 
ATOM      2  C   UNL     1       0.749  -0.410  -1.596  1.00  0.00     0.271 C 
ATOM      3  O   UNL     1       1.154  -1.175  -2.458  1.00  0.00    -0.268 OA
ATOM      4  C   UNL     1       1.590   0.339  -0.603  1.00  0.00     0.125 C 
ATOM      5  C   UNL     1       2.915   0.173  -0.367  1.00  0.00     0.103 C 
ATOM      6  S   UNL     1       3.801  -1.178  -1.169  1.00  0.00    -0.068 SA
ATOM      7  C   UNL     1       5.213  -0.855  -0.136  1.00  0.00     0.037 A 
ATOM      8  C   UNL     1       6.394  -1.585  -0.121  1.00  0.00     0.017 A 
ATOM      9  C   UNL     1       7.405  -1.196   0.755  1.00  0.00     0.001 A 
ATOM     10  C   UNL     1       7.220  -0.095   1.600  1.00  0.00     0.002 A 
ATOM     11  C   UNL     1       6.025   0.634   1.573  1.00  0.00     0.027 A 
ATOM     12  C   UNL     1       5.012   0.264   0.692  1.00  0.00     0.055 A 
ATOM     13  N   UNL     1       3.746   0.876   0.539  1.00  0.00    -0.337 N 
ATOM     14  C   UNL     1       3.614   2.261   0.965  1.00  0.00     0.151 C 
ATOM     15  S   UNL     1       0.562   1.408   0.316  1.00  0.00    -0.109 SA
ATOM     16  C   UNL     1      -0.894   0.790  -0.408  1.00  0.00     0.105 C 
ATOM     17  C   UNL     1      -2.068   1.214   0.091  1.00  0.00     0.116 C 
ENDROOT
BRANCH   1  18
ATOM     18  C   UNL     1      -1.554  -0.750  -2.312  1.00  0.00     0.123 C 
ATOM     19  C   UNL     1      -1.967  -2.131  -1.828  1.00  0.00     0.028 C 
ENDBRANCH   1  18
BRANCH  17  20
ATOM     20  C   UNL     1      -3.436   0.846  -0.268  1.00  0.00     0.208 A 
ATOM     21  C   UNL     1      -4.086   1.548  -1.293  1.00  0.00     0.079 A 
ATOM     22  N   UNL     1      -4.111  -0.115   0.426  1.00  0.00    -0.199 N 
ATOM     23  C   UNL     1      -5.395   1.235  -1.631  1.00  0.00     0.013 A 
ATOM     24  C   UNL     1      -5.391  -0.425   0.095  1.00  0.00     0.308 A 
ATOM     25  C   UNL     1      -6.051   0.235  -0.933  1.00  0.00     0.071 A 
BRANCH  22  26
ATOM     26  C   UNL     1      -3.490  -0.852   1.562  1.00  0.00     0.354 C 
ATOM     27  C   UNL     1      -3.778  -0.121   2.859  1.00  0.00     0.083 C 
ENDBRANCH  22  26
ENDBRANCH  17  20
TORSDOF 3
