REMARK SMILES N[C@@H](CC(=O)N1CCc2c(nc(C(F)(F)F)nc2C(F)(F)F)C1)CN1CC(F)(F)CCC1=O
REMARK SMILES IDX 3 1 2 2 1 3 24 6 25 7 26 8 32 9 27 10 31 11 33 12 30 13
REMARK SMILES IDX 28 14 29 15 4 16 5 17 6 18 7 19 23 20 8 21 10 22 9 23 11 24
REMARK SMILES IDX 18 25 12 26 17 27 19 28 20 29 21 30 22 31 13 32 14 33 15 34
REMARK SMILES IDX 16 35
REMARK H PARENT 1 4 1 5
ROOT
ATOM      1  C   UNL     1       0.861   1.009  -0.878  1.00  0.00     0.120 C 
ENDROOT
BRANCH   1   2
ATOM      2  C   UNL     1       2.325   0.529  -0.884  1.00  0.00     0.079 C 
BRANCH   2   3
ATOM      3  N   UNL     1       2.734  -0.023  -2.191  1.00  0.00    -0.326 NA
ATOM      4  H   UNL     1       2.147  -0.845  -2.382  1.00  0.00     0.119 HD
ATOM      5  H   UNL     1       2.515   0.642  -2.931  1.00  0.00     0.119 HD
ENDBRANCH   2   3
BRANCH   2   6
ATOM      6  C   UNL     1       2.602  -0.469   0.274  1.00  0.00     0.138 C 
BRANCH   6   7
ATOM      7  N   UNL     1       4.012  -0.525   0.673  1.00  0.00    -0.335 N 
ATOM      8  C   UNL     1       4.901  -1.383  -0.123  1.00  0.00     0.196 C 
ATOM      9  C   UNL     1       4.501   0.507   1.463  1.00  0.00     0.223 C 
ATOM     10  C   UNL     1       6.298  -1.566   0.454  1.00  0.00     0.265 C 
ATOM     11  C   UNL     1       5.947   0.402   1.912  1.00  0.00     0.106 C 
ATOM     12  O   UNL     1       3.789   1.426   1.868  1.00  0.00    -0.275 OA
ATOM     13  C   UNL     1       6.866  -0.235   0.889  1.00  0.00     0.089 C 
ATOM     14  F   UNL     1       7.114  -2.130  -0.470  1.00  0.00    -0.205 F 
ATOM     15  F   UNL     1       6.263  -2.414   1.512  1.00  0.00    -0.205 F 
ENDBRANCH   6   7
ENDBRANCH   2   6
ENDBRANCH   1   2
BRANCH   1  16
ATOM     16  C   UNL     1      -0.174  -0.088  -1.072  1.00  0.00     0.224 C 
ATOM     17  O   UNL     1       0.155  -1.224  -1.417  1.00  0.00    -0.275 OA
BRANCH  16  18
ATOM     18  N   UNL     1      -1.506   0.249  -0.853  1.00  0.00    -0.336 N 
ATOM     19  C   UNL     1      -2.014   1.617  -0.813  1.00  0.00     0.125 C 
ATOM     20  C   UNL     1      -2.500  -0.788  -1.135  1.00  0.00     0.176 C 
ATOM     21  C   UNL     1      -3.140   1.750   0.213  1.00  0.00     0.061 C 
ATOM     22  C   UNL     1      -3.882  -0.518  -0.572  1.00  0.00     0.068 A 
ATOM     23  C   UNL     1      -4.191   0.686   0.049  1.00  0.00     0.008 A 
ATOM     24  N   UNL     1      -4.789  -1.507  -0.729  1.00  0.00    -0.227 NA
ATOM     25  C   UNL     1      -5.484   0.804   0.557  1.00  0.00     0.152 A 
ATOM     26  C   UNL     1      -6.037  -1.319  -0.244  1.00  0.00     0.235 A 
ATOM     27  N   UNL     1      -6.403  -0.189   0.403  1.00  0.00    -0.220 NA
BRANCH  25  28
ATOM     28  C   UNL     1      -5.919   2.066   1.295  1.00  0.00     0.433 C 
ATOM     29  F   UNL     1      -5.062   2.407   2.301  1.00  0.00    -0.165 F 
ATOM     30  F   UNL     1      -7.149   1.981   1.872  1.00  0.00    -0.165 F 
ATOM     31  F   UNL     1      -5.968   3.154   0.472  1.00  0.00    -0.165 F 
ENDBRANCH  25  28
BRANCH  26  32
ATOM     32  C   UNL     1      -7.067  -2.451  -0.394  1.00  0.00     0.451 C 
ATOM     33  F   UNL     1      -6.830  -3.267  -1.466  1.00  0.00    -0.163 F 
ATOM     34  F   UNL     1      -7.109  -3.277   0.694  1.00  0.00    -0.163 F 
ATOM     35  F   UNL     1      -8.347  -2.000  -0.564  1.00  0.00    -0.163 F 
ENDBRANCH  26  32
ENDBRANCH  16  18
ENDBRANCH   1  16
TORSDOF 8
