REMARK SMILES C[C@@H](C(=O)Nc1ccc(Cl)cc1)[C@H]1CC[C@@H](c2ccnc3ccc(F)cc32)CC1
REMARK SMILES IDX 1 1 2 2 3 3 4 4 5 5 6 7 7 8 12 9 8 10 11 11 9 12 10 13 13 14
REMARK SMILES IDX 29 15 14 16 28 17 15 18 16 19 17 20 18 21 27 22 19 23 26 24
REMARK SMILES IDX 21 25 20 26 24 27 22 28 23 29 25 30
REMARK H PARENT 5 6
ROOT
ATOM      1  C   UNL     1       1.984   2.458   0.961  1.00  0.00     0.018 C 
ATOM      2  C   UNL     1       1.496   1.202   0.230  1.00  0.00     0.079 C 
ENDROOT
BRANCH   2   3
ATOM      3  C   UNL     1       2.649   0.610  -0.592  1.00  0.00     0.227 C 
ATOM      4  O   UNL     1       2.544   0.525  -1.812  1.00  0.00    -0.274 OA
ATOM      5  N   UNL     1       3.731   0.203   0.166  1.00  0.00    -0.326 N 
ATOM      6  H   UNL     1       3.668   0.345   1.165  1.00  0.00     0.169 HD
BRANCH   5   7
ATOM      7  C   UNL     1       4.926  -0.391  -0.290  1.00  0.00     0.041 A 
ATOM      8  C   UNL     1       5.886  -0.717   0.679  1.00  0.00     0.027 A 
ATOM      9  C   UNL     1       5.201  -0.670  -1.631  1.00  0.00     0.027 A 
ATOM     10  C   UNL     1       7.099  -1.310   0.312  1.00  0.00     0.022 A 
ATOM     11  C   UNL     1       6.414  -1.264  -2.000  1.00  0.00     0.022 A 
ATOM     12  C   UNL     1       7.357  -1.581  -1.028  1.00  0.00     0.041 A 
ATOM     13  Cl  UNL     1       8.847  -2.311  -1.482  1.00  0.00    -0.084 Cl
ENDBRANCH   5   7
ENDBRANCH   2   3
BRANCH   2  14
ATOM     14  C   UNL     1       0.855   0.149   1.182  1.00  0.00     0.001 C 
ATOM     15  C   UNL     1      -0.332   0.709   1.989  1.00  0.00     0.005 C 
ATOM     16  C   UNL     1       0.386  -1.119   0.436  1.00  0.00     0.005 C 
ATOM     17  C   UNL     1      -1.567   0.981   1.128  1.00  0.00     0.009 C 
ATOM     18  C   UNL     1      -0.831  -0.863  -0.455  1.00  0.00     0.009 C 
ATOM     19  C   UNL     1      -2.006  -0.274   0.354  1.00  0.00     0.020 C 
BRANCH  19  20
ATOM     20  C   UNL     1      -3.265   0.016  -0.461  1.00  0.00    -0.034 A 
ATOM     21  C   UNL     1      -3.154   0.518  -1.764  1.00  0.00     0.025 A 
ATOM     22  C   UNL     1      -4.575  -0.167   0.078  1.00  0.00     0.007 A 
ATOM     23  C   UNL     1      -4.302   0.777  -2.488  1.00  0.00     0.112 A 
ATOM     24  C   UNL     1      -4.849  -0.617   1.393  1.00  0.00     0.049 A 
ATOM     25  C   UNL     1      -5.680   0.132  -0.763  1.00  0.00     0.071 A 
ATOM     26  N   UNL     1      -5.547   0.587  -2.015  1.00  0.00    -0.256 NA
ATOM     27  C   UNL     1      -6.156  -0.775   1.839  1.00  0.00     0.123 A 
ATOM     28  C   UNL     1      -6.973  -0.040  -0.283  1.00  0.00     0.032 A 
ATOM     29  C   UNL     1      -7.225  -0.493   1.011  1.00  0.00     0.041 A 
ATOM     30  F   UNL     1      -6.379  -1.202   3.088  1.00  0.00    -0.207 F 
ENDBRANCH  19  20
ENDBRANCH   2  14
TORSDOF 4
