REMARK SMILES C[C@H]1[C@@H](O)O[C@@H]2O[C@@]3(C)CC[C@H]4[C@H](C)CC[C@@H]1[C@@]24OO3
REMARK SMILES IDX 1 1 2 2 3 3 5 4 6 5 7 6 8 7 9 8 12 9 13 10 14 11 15 12 16 13
REMARK SMILES IDX 17 14 18 15 19 16 20 17 4 18 11 20 10 22
REMARK H PARENT 4 19
REMARK Flexibility Score:    0.900
ROOT
ATOM      1  C   UNL     1      -3.948   0.256  -0.192  1.00  0.00     0.013 C 
ATOM      2  C   UNL     1      -2.622  -0.188   0.436  1.00  0.00     0.049 C 
ATOM      3  C   UNL     1      -2.263  -1.660   0.138  1.00  0.00     0.253 C 
ATOM      4  O   UNL     1      -1.353  -1.727  -0.939  1.00  0.00    -0.320 OA
ATOM      5  C   UNL     1      -0.053  -1.258  -0.571  1.00  0.00     0.292 C 
ATOM      6  O   UNL     1       0.652  -2.302   0.096  1.00  0.00    -0.315 OA
ATOM      7  C   UNL     1       1.636  -1.853   1.029  1.00  0.00     0.201 C 
ATOM      8  C   UNL     1       2.111  -3.099   1.775  1.00  0.00     0.079 C 
ATOM      9  C   UNL     1       1.190   0.932  -0.054  1.00  0.00     0.033 C 
ATOM     10  C   UNL     1       0.958   1.917  -1.250  1.00  0.00    -0.008 C 
ATOM     11  C   UNL     1       2.038   3.006  -1.322  1.00  0.00     0.008 C 
ATOM     12  C   UNL     1      -0.412   2.589  -1.234  1.00  0.00     0.004 C 
ATOM     13  C   UNL     1      -1.529   1.561  -1.168  1.00  0.00     0.007 C 
ATOM     14  C   UNL     1      -1.426   0.783   0.142  1.00  0.00     0.038 C 
ATOM     15  C   UNL     1      -0.066   0.043   0.267  1.00  0.00     0.161 C 
ATOM     16  O   UNL     1      -0.086  -0.368   1.659  1.00  0.00    -0.221 OA
ATOM     17  O   UNL     1       1.198  -0.924   2.027  1.00  0.00    -0.200 OA
ENDROOT
BRANCH   3  18
ATOM     18  O   UNL     1      -3.410  -2.413  -0.213  1.00  0.00    -0.368 OA
ATOM     19  H   UNL     1      -3.074  -3.314  -0.349  1.00  0.00     0.213 HD
ENDBRANCH   3  18
BRANCH   9  20
ATOM     20  C   UNL     1       2.486   0.121  -0.401  1.00  0.00     0.013 CG0
ATOM     21  G   UNL     1       2.818  -1.168   0.354  1.00  0.00     0.000 G0
ENDBRANCH   9  20
BRANCH   7  22
ATOM     22  C   UNL     1       2.818  -1.168   0.354  1.00  0.00     0.069 CG0
ATOM     23  G   UNL     1       2.486   0.121  -0.401  1.00  0.00     0.000 G0
ENDBRANCH   7  22
TORSDOF 1
