REMARK SMILES C[C@H](NC(=O)[C@@H](N)Cc1ccc(O)cc1)C(=O)NCC(=O)N(C)[C@@H](Cc1ccccc1)C(=O)N[C@H](CO)CC[S@@](C)=O
REMARK SMILES IDX 20 1 21 2 19 3 18 4 16 5 17 6 2 8 1 9 3 10 4 11 5 12 6 14
REMARK SMILES IDX 7 15 8 18 9 19 10 20 15 21 11 22 14 23 12 24 13 25 22 27
REMARK SMILES IDX 23 28 24 29 25 30 26 31 27 32 31 33 28 34 30 35 29 36 32 37
REMARK SMILES IDX 33 38 34 39 35 41 36 42 37 43 38 45 39 46 40 47 42 48 41 49
REMARK H PARENT 18 7 3 13 7 16 7 17 13 26 34 40 37 44
ROOT
ATOM      1  C   UNL     1      -0.912   3.057  -0.111  1.00  0.00     0.242 C 
ATOM      2  O   UNL     1      -0.928   4.293  -0.034  1.00  0.00    -0.273 OA
ENDROOT
BRANCH   1   3
ATOM      3  C   UNL     1      -0.895   2.428  -1.527  1.00  0.00     0.216 C 
BRANCH   3   4
ATOM      4  N   UNL     1      -0.257   1.154  -1.789  1.00  0.00    -0.345 N 
ATOM      5  C   UNL     1       1.093   1.062  -2.037  1.00  0.00     0.242 C 
ATOM      6  O   UNL     1       1.854   2.024  -1.919  1.00  0.00    -0.273 OA
ATOM      7  H   UNL     1      -0.841   0.322  -1.862  1.00  0.00     0.164 HD
BRANCH   5   8
ATOM      8  C   UNL     1       1.593  -0.332  -2.470  1.00  0.00     0.168 C 
ATOM      9  C   UNL     1       1.466  -1.345  -1.341  1.00  0.00     0.041 C 
BRANCH   8  10
ATOM     10  N   UNL     1       2.983  -0.181  -2.878  1.00  0.00    -0.343 N 
ATOM     11  C   UNL     1       3.621  -1.056  -3.720  1.00  0.00     0.237 C 
ATOM     12  O   UNL     1       3.052  -2.028  -4.213  1.00  0.00    -0.273 OA
ATOM     13  H   UNL     1       3.479   0.619  -2.502  1.00  0.00     0.164 HD
BRANCH  11  14
ATOM     14  C   UNL     1       5.113  -0.759  -3.991  1.00  0.00     0.145 C 
BRANCH  14  15
ATOM     15  N   UNL     1       5.529   0.584  -3.515  1.00  0.00    -0.320 NA
ATOM     16  H   UNL     1       5.487   0.613  -2.498  1.00  0.00     0.119 HD
ATOM     17  H   UNL     1       4.887   1.287  -3.881  1.00  0.00     0.119 HD
ENDBRANCH  14  15
BRANCH  14  18
ATOM     18  C   UNL     1       5.999  -1.887  -3.427  1.00  0.00     0.064 C 
BRANCH  18  19
ATOM     19  C   UNL     1       5.931  -2.066  -1.925  1.00  0.00    -0.046 A 
ATOM     20  C   UNL     1       4.979  -2.924  -1.357  1.00  0.00     0.007 A 
ATOM     21  C   UNL     1       6.804  -1.366  -1.079  1.00  0.00     0.007 A 
ATOM     22  C   UNL     1       4.891  -3.068   0.027  1.00  0.00     0.046 A 
ATOM     23  C   UNL     1       6.717  -1.510   0.308  1.00  0.00     0.046 A 
ATOM     24  C   UNL     1       5.758  -2.359   0.849  1.00  0.00     0.115 A 
BRANCH  24  25
ATOM     25  O   UNL     1       5.634  -2.524   2.197  1.00  0.00    -0.508 OA
ATOM     26  H   UNL     1       6.347  -2.028   2.632  1.00  0.00     0.293 HD
ENDBRANCH  24  25
ENDBRANCH  18  19
ENDBRANCH  14  18
ENDBRANCH  11  14
ENDBRANCH   8  10
ENDBRANCH   5   8
ENDBRANCH   3   4
ENDBRANCH   1   3
BRANCH   1  27
ATOM     27  N   UNL     1      -1.116   2.281   1.037  1.00  0.00    -0.332 N 
ATOM     28  C   UNL     1      -1.216   3.004   2.303  1.00  0.00     0.147 C 
BRANCH  27  29
ATOM     29  C   UNL     1      -0.960   0.800   1.068  1.00  0.00     0.178 C 
BRANCH  29  30
ATOM     30  C   UNL     1      -0.818   0.164   2.470  1.00  0.00     0.070 C 
BRANCH  30  31
ATOM     31  C   UNL     1      -0.236  -1.231   2.424  1.00  0.00    -0.045 A 
ATOM     32  C   UNL     1       1.150  -1.418   2.524  1.00  0.00     0.004 A 
ATOM     33  C   UNL     1      -1.062  -2.350   2.260  1.00  0.00     0.004 A 
ATOM     34  C   UNL     1       1.698  -2.700   2.467  1.00  0.00     0.000 A 
ATOM     35  C   UNL     1      -0.511  -3.631   2.197  1.00  0.00     0.000 A 
ATOM     36  C   UNL     1       0.868  -3.806   2.302  1.00  0.00     0.000 A 
ENDBRANCH  30  31
ENDBRANCH  29  30
BRANCH  29  37
ATOM     37  C   UNL     1      -2.199   0.202   0.363  1.00  0.00     0.243 C 
ATOM     38  O   UNL     1      -2.106  -0.639  -0.530  1.00  0.00    -0.273 OA
ATOM     39  N   UNL     1      -3.410   0.666   0.838  1.00  0.00    -0.349 N 
ATOM     40  H   UNL     1      -3.364   1.619   1.185  1.00  0.00     0.163 HD
BRANCH  39  41
ATOM     41  C   UNL     1      -4.666   0.301   0.180  1.00  0.00     0.108 C 
BRANCH  41  42
ATOM     42  C   UNL     1      -4.857   1.109  -1.117  1.00  0.00     0.180 C 
BRANCH  42  43
ATOM     43  O   UNL     1      -4.693   2.505  -0.860  1.00  0.00    -0.394 OA
ATOM     44  H   UNL     1      -4.843   2.966  -1.706  1.00  0.00     0.210 HD
ENDBRANCH  42  43
ENDBRANCH  41  42
BRANCH  41  45
ATOM     45  C   UNL     1      -5.844   0.414   1.163  1.00  0.00     0.041 C 
BRANCH  45  46
ATOM     46  C   UNL     1      -6.225   1.835   1.571  1.00  0.00     0.107 C 
BRANCH  46  47
ATOM     47  S   UNL     1      -7.520   1.789   2.860  1.00  0.00     0.018 S 
ATOM     48  O   UNL     1      -8.762   1.237   2.225  1.00  0.00    -0.260 OA
ATOM     49  C   UNL     1      -7.720   3.584   2.976  1.00  0.00     0.123 C 
ENDBRANCH  46  47
ENDBRANCH  45  46
ENDBRANCH  41  45
ENDBRANCH  39  41
ENDBRANCH  29  37
ENDBRANCH  27  29
ENDBRANCH   1  27
TORSDOF 20
