REMARK SMILES Nc1c(Cl)cc(C=C2NCCN2)cc1Cl
REMARK SMILES IDX 2 1 3 2 4 3 5 4 6 5 13 6 14 7 15 8 1 9 7 12 8 13 9 14 12 15
REMARK SMILES IDX 10 16 11 17
REMARK H PARENT 1 10 1 11 9 18 12 19
ROOT
ATOM      1  C   UNL     1      -3.330  -0.650   0.260  1.00  0.00     0.069 A 
ATOM      2  C   UNL     1      -2.670  -1.087   1.423  1.00  0.00     0.066 A 
ATOM      3  Cl  UNL     1      -3.481  -2.105   2.567  1.00  0.00    -0.082 Cl
ATOM      4  C   UNL     1      -1.340  -0.737   1.683  1.00  0.00     0.031 A 
ATOM      5  C   UNL     1      -0.638   0.081   0.793  1.00  0.00    -0.019 A 
ATOM      6  C   UNL     1      -1.297   0.573  -0.338  1.00  0.00     0.031 A 
ATOM      7  C   UNL     1      -2.627   0.221  -0.592  1.00  0.00     0.066 A 
ATOM      8  Cl  UNL     1      -3.383   0.866  -2.010  1.00  0.00    -0.082 Cl
ENDROOT
BRANCH   1   9
ATOM      9  N   UNL     1      -4.708  -0.897   0.070  1.00  0.00    -0.396 N 
ATOM     10  H   UNL     1      -5.032  -1.746   0.528  1.00  0.00     0.156 HD
ATOM     11  H   UNL     1      -5.002  -0.815  -0.900  1.00  0.00     0.156 HD
ENDBRANCH   1   9
BRANCH   5  12
ATOM     12  C   UNL     1       0.746   0.459   1.109  1.00  0.00     0.052 C 
ATOM     13  C   UNL     1       1.781   0.457   0.256  1.00  0.00     0.099 C 
ATOM     14  N   UNL     1       3.060   0.836   0.609  1.00  0.00    -0.370 N 
ATOM     15  N   UNL     1       1.759   0.072  -1.068  1.00  0.00    -0.370 N 
ATOM     16  C   UNL     1       3.909   0.889  -0.585  1.00  0.00     0.135 C 
ATOM     17  C   UNL     1       3.128   0.008  -1.589  1.00  0.00     0.135 C 
ATOM     18  H   UNL     1       3.093   1.637   1.231  1.00  0.00     0.162 HD
ATOM     19  H   UNL     1       1.166  -0.734  -1.239  1.00  0.00     0.162 HD
ENDBRANCH   5  12
TORSDOF 2
