REMARK SMILES C1=C2CCCN[C@H]2[C@@H]2C[C@H]1[C@H]1CCCCN1C2
REMARK SMILES IDX 1 1 2 2 3 3 4 4 5 5 6 6 7 7 8 8 9 9 10 10 11 11 12 12 13 13
REMARK SMILES IDX 14 14 15 15 16 16 17 17
REMARK H PARENT 6 18
ROOT
ATOM      1  C   UNL     1       0.775   1.482   0.642  1.00  0.00    -0.021 C 
ATOM      2  C   UNL     1       1.848   0.699   0.406  1.00  0.00    -0.057 C 
ATOM      3  C   UNL     1       3.010   0.619   1.361  1.00  0.00     0.033 C 
ATOM      4  C   UNL     1       4.238   0.057   0.652  1.00  0.00     0.020 C 
ATOM      5  C   UNL     1       3.943  -1.301   0.004  1.00  0.00     0.082 C 
ATOM      6  N   UNL     1       2.576  -1.463  -0.496  1.00  0.00    -0.310 NA
ATOM      7  C   UNL     1       1.935  -0.191  -0.824  1.00  0.00     0.084 C 
ATOM      8  C   UNL     1       0.533  -0.391  -1.462  1.00  0.00     0.025 C 
ATOM      9  C   UNL     1      -0.060   1.015  -1.675  1.00  0.00     0.016 C 
ATOM     10  C   UNL     1      -0.431   1.552  -0.286  1.00  0.00     0.029 C 
ATOM     11  C   UNL     1      -1.613   0.702   0.279  1.00  0.00     0.063 C 
ATOM     12  C   UNL     1      -2.959   1.419   0.037  1.00  0.00     0.020 C 
ATOM     13  C   UNL     1      -4.174   0.495   0.194  1.00  0.00     0.003 C 
ATOM     14  C   UNL     1      -3.827  -0.758   0.988  1.00  0.00     0.016 C 
ATOM     15  C   UNL     1      -2.640  -1.511   0.369  1.00  0.00     0.085 C 
ATOM     16  N   UNL     1      -1.713  -0.630  -0.351  1.00  0.00    -0.299 NA
ATOM     17  C   UNL     1      -0.403  -1.257  -0.567  1.00  0.00     0.090 C 
ATOM     18  H   UNL     1       2.575  -2.081  -1.306  1.00  0.00     0.123 HD
ENDROOT
TORSDOF 0
