MODEL 1
REMARK VINA RESULT:    -9.179      0.000      0.000
REMARK INTER + INTRA:         -14.691
REMARK INTER:                 -13.472
REMARK INTRA:                  -1.218
REMARK UNBOUND:                -1.218
REMARK SMILES Cn1nc(C(F)(F)F)cc1C(=O)Nc1ccc(S(=O)(=O)N2CCCC[C@H]2CCN2CCOCC2)cc1
REMARK SMILES IDX 16 1 15 2 17 3 35 4 36 5 14 6 13 7 11 8 12 9 10 11 2 12 3 13
REMARK SMILES IDX 4 14 9 15 1 16 5 17 6 18 7 19 8 20 18 21 19 22 20 23 21 24
REMARK SMILES IDX 26 25 22 26 25 27 23 28 24 29 27 30 28 31 29 32 30 33 34 34
REMARK SMILES IDX 31 35 33 36 32 37
REMARK H PARENT 13 10
ROOT
ATOM      1  C   UNL     1     135.023 136.784 151.219  1.00  0.00     0.024 A 
ATOM      2  C   UNL     1     135.788 137.391 150.050  1.00  0.00     0.027 A 
ATOM      3  C   UNL     1     133.533 136.489 151.073  1.00  0.00     0.082 A 
ATOM      4  C   UNL     1     132.803 136.799 149.775  1.00  0.00     0.024 A 
ATOM      5  C   UNL     1     133.569 137.405 148.608  1.00  0.00     0.027 A 
ATOM      6  C   UNL     1     135.060 137.683 148.741  1.00  0.00     0.041 A 
ENDROOT
BRANCH   6   7
ATOM      7  N   UNL     1     135.771 138.292 147.641  1.00  0.00    -0.321 N 
ATOM      8  C   UNL     1     136.162 137.631 146.413  1.00  0.00     0.273 C 
ATOM      9  O   UNL     1     135.938 136.488 146.208  1.00  0.00    -0.267 OA
ATOM     10  H   UNL     1     136.010 139.243 147.733  1.00  0.00     0.170 HD
BRANCH   8  11
ATOM     11  C   UNL     1     136.850 138.532 145.396  1.00  0.00     0.126 A 
ATOM     12  N   UNL     1     136.331 139.361 144.498  1.00  0.00    -0.262 N 
ATOM     13  N   UNL     1     137.386 139.964 143.825  1.00  0.00    -0.168 NA
ATOM     14  C   UNL     1     138.521 139.493 144.327  1.00  0.00     0.167 A 
ATOM     15  C   UNL     1     138.205 138.608 145.306  1.00  0.00     0.069 A 
ATOM     16  C   UNL     1     134.925 139.606 144.243  1.00  0.00     0.174 C 
BRANCH  14  17
ATOM     17  C   UNL     1     139.942 139.856 143.912  1.00  0.00     0.435 C 
ATOM     18  F   UNL     1     140.388 138.970 142.978  1.00  0.00    -0.164 F 
ATOM     19  F   UNL     1     140.763 139.827 144.999  1.00  0.00    -0.164 F 
ATOM     20  F   UNL     1     139.936 141.111 143.379  1.00  0.00    -0.164 F 
ENDBRANCH  14  17
ENDBRANCH   8  11
ENDBRANCH   6   7
BRANCH   3  21
ATOM     21  S   UNL     1     132.605 135.780 152.453  1.00  0.00     0.243 S 
ATOM     22  O   UNL     1     133.480 135.149 153.435  1.00  0.00    -0.207 OA
ATOM     23  O   UNL     1     131.799 134.649 151.995  1.00  0.00    -0.207 OA
BRANCH  21  24
ATOM     24  N   UNL     1     131.650 137.023 153.139  1.00  0.00    -0.195 NA
ATOM     25  C   UNL     1     131.093 136.866 154.548  1.00  0.00     0.074 C 
ATOM     26  C   UNL     1     132.031 138.487 152.945  1.00  0.00     0.103 C 
ATOM     27  C   UNL     1     131.984 137.481 155.616  1.00  0.00     0.020 C 
ATOM     28  C   UNL     1     132.913 139.049 154.048  1.00  0.00     0.017 C 
ATOM     29  C   UNL     1     132.325 138.867 155.355  1.00  0.00     0.003 C 
BRANCH  25  30
ATOM     30  C   UNL     1     129.724 137.501 154.617  1.00  0.00     0.036 C 
BRANCH  30  31
ATOM     31  C   UNL     1     128.707 136.534 154.018  1.00  0.00     0.086 C 
BRANCH  31  32
ATOM     32  N   UNL     1     127.572 137.088 153.957  1.00  0.00    -0.299 NA
ATOM     33  C   UNL     1     126.618 136.254 154.504  1.00  0.00     0.113 C 
ATOM     34  C   UNL     1     127.602 138.319 154.582  1.00  0.00     0.113 C 
ATOM     35  C   UNL     1     125.237 136.903 154.489  1.00  0.00     0.175 C 
ATOM     36  C   UNL     1     126.226 138.983 154.584  1.00  0.00     0.175 C 
ATOM     37  O   UNL     1     125.247 138.148 155.093  1.00  0.00    -0.379 OA
ENDBRANCH  31  32
ENDBRANCH  30  31
ENDBRANCH  25  30
ENDBRANCH  21  24
ENDBRANCH   3  21
TORSDOF 8
ENDMDL
MODEL 2
REMARK VINA RESULT:    -9.158      1.940      2.534
REMARK INTER + INTRA:         -14.659
REMARK INTER:                 -13.295
REMARK INTRA:                  -1.364
REMARK UNBOUND:                -1.218
REMARK SMILES Cn1nc(C(F)(F)F)cc1C(=O)Nc1ccc(S(=O)(=O)N2CCCC[C@H]2CCN2CCOCC2)cc1
REMARK SMILES IDX 16 1 15 2 17 3 35 4 36 5 14 6 13 7 11 8 12 9 10 11 2 12 3 13
REMARK SMILES IDX 4 14 9 15 1 16 5 17 6 18 7 19 8 20 18 21 19 22 20 23 21 24
REMARK SMILES IDX 26 25 22 26 25 27 23 28 24 29 27 30 28 31 29 32 30 33 34 34
REMARK SMILES IDX 31 35 33 36 32 37
REMARK H PARENT 13 10
ROOT
ATOM      1  C   UNL     1     135.594 137.069 150.439  1.00  0.00     0.024 A 
ATOM      2  C   UNL     1     136.378 137.599 149.245  1.00  0.00     0.027 A 
ATOM      3  C   UNL     1     134.105 136.776 150.292  1.00  0.00     0.082 A 
ATOM      4  C   UNL     1     133.393 137.010 148.969  1.00  0.00     0.024 A 
ATOM      5  C   UNL     1     134.177 137.539 147.776  1.00  0.00     0.027 A 
ATOM      6  C   UNL     1     135.669 137.814 147.912  1.00  0.00     0.041 A 
ENDROOT
BRANCH   6   7
ATOM      7  N   UNL     1     136.398 138.351 146.786  1.00  0.00    -0.321 N 
ATOM      8  C   UNL     1     137.304 137.612 145.931  1.00  0.00     0.273 C 
ATOM      9  O   UNL     1     137.545 136.466 146.101  1.00  0.00    -0.267 OA
ATOM     10  H   UNL     1     136.266 139.304 146.580  1.00  0.00     0.170 HD
BRANCH   8  11
ATOM     11  C   UNL     1     137.891 138.417 144.779  1.00  0.00     0.126 A 
ATOM     12  N   UNL     1     137.375 138.713 143.592  1.00  0.00    -0.262 N 
ATOM     13  N   UNL     1     138.306 139.487 142.911  1.00  0.00    -0.168 NA
ATOM     14  C   UNL     1     139.364 139.646 143.696  1.00  0.00     0.167 A 
ATOM     15  C   UNL     1     139.120 138.993 144.859  1.00  0.00     0.069 A 
ATOM     16  C   UNL     1     136.081 138.311 143.075  1.00  0.00     0.174 C 
BRANCH  14  17
ATOM     17  C   UNL     1     140.641 140.419 143.387  1.00  0.00     0.435 C 
ATOM     18  F   UNL     1     140.614 141.625 144.022  1.00  0.00    -0.164 F 
ATOM     19  F   UNL     1     140.752 140.613 142.043  1.00  0.00    -0.164 F 
ATOM     20  F   UNL     1     141.709 139.698 143.833  1.00  0.00    -0.164 F 
ENDBRANCH  14  17
ENDBRANCH   8  11
ENDBRANCH   6   7
BRANCH   3  21
ATOM     21  S   UNL     1     133.154 136.158 151.701  1.00  0.00     0.243 S 
ATOM     22  O   UNL     1     133.905 135.179 152.481  1.00  0.00    -0.207 OA
ATOM     23  O   UNL     1     132.016 135.367 151.238  1.00  0.00    -0.207 OA
BRANCH  21  24
ATOM     24  N   UNL     1     132.671 137.505 152.641  1.00  0.00    -0.195 NA
ATOM     25  C   UNL     1     133.334 137.771 153.987  1.00  0.00     0.074 C 
ATOM     26  C   UNL     1     132.394 138.850 151.979  1.00  0.00     0.103 C 
ATOM     27  C   UNL     1     134.507 138.735 153.895  1.00  0.00     0.020 C 
ATOM     28  C   UNL     1     133.600 139.775 151.926  1.00  0.00     0.017 C 
ATOM     29  C   UNL     1     134.177 139.984 153.234  1.00  0.00     0.003 C 
BRANCH  25  30
ATOM     30  C   UNL     1     132.308 138.326 154.947  1.00  0.00     0.036 C 
BRANCH  30  31
ATOM     31  C   UNL     1     131.134 137.353 155.021  1.00  0.00     0.086 C 
BRANCH  31  32
ATOM     32  N   UNL     1     130.450 137.586 156.058  1.00  0.00    -0.299 NA
ATOM     33  C   UNL     1     131.249 138.172 157.019  1.00  0.00     0.113 C 
ATOM     34  C   UNL     1     129.354 138.368 155.750  1.00  0.00     0.113 C 
ATOM     35  C   UNL     1     130.452 138.510 158.276  1.00  0.00     0.175 C 
ATOM     36  C   UNL     1     128.546 138.722 156.997  1.00  0.00     0.175 C 
ATOM     37  O   UNL     1     129.337 139.276 157.988  1.00  0.00    -0.379 OA
ENDBRANCH  31  32
ENDBRANCH  30  31
ENDBRANCH  25  30
ENDBRANCH  21  24
ENDBRANCH   3  21
TORSDOF 8
ENDMDL
MODEL 3
REMARK VINA RESULT:    -9.105      2.122      2.978
REMARK INTER + INTRA:         -14.581
REMARK INTER:                 -13.322
REMARK INTRA:                  -1.260
REMARK UNBOUND:                -1.218
REMARK SMILES Cn1nc(C(F)(F)F)cc1C(=O)Nc1ccc(S(=O)(=O)N2CCCC[C@H]2CCN2CCOCC2)cc1
REMARK SMILES IDX 16 1 15 2 17 3 35 4 36 5 14 6 13 7 11 8 12 9 10 11 2 12 3 13
REMARK SMILES IDX 4 14 9 15 1 16 5 17 6 18 7 19 8 20 18 21 19 22 20 23 21 24
REMARK SMILES IDX 26 25 22 26 25 27 23 28 24 29 27 30 28 31 29 32 30 33 34 34
REMARK SMILES IDX 31 35 33 36 32 37
REMARK H PARENT 13 10
ROOT
ATOM      1  C   UNL     1     133.666 136.945 149.156  1.00  0.00     0.024 A 
ATOM      2  C   UNL     1     134.602 137.400 148.044  1.00  0.00     0.027 A 
ATOM      3  C   UNL     1     134.225 136.675 150.549  1.00  0.00     0.082 A 
ATOM      4  C   UNL     1     135.707 136.851 150.840  1.00  0.00     0.024 A 
ATOM      5  C   UNL     1     136.642 137.306 149.728  1.00  0.00     0.027 A 
ATOM      6  C   UNL     1     136.086 137.596 148.340  1.00  0.00     0.041 A 
ENDROOT
BRANCH   6   7
ATOM      7  N   UNL     1     136.987 137.992 147.282  1.00  0.00    -0.321 N 
ATOM      8  C   UNL     1     137.239 137.253 146.062  1.00  0.00     0.273 C 
ATOM      9  O   UNL     1     136.720 136.217 145.829  1.00  0.00    -0.267 OA
ATOM     10  H   UNL     1     137.472 138.840 147.401  1.00  0.00     0.170 HD
BRANCH   8  11
ATOM     11  C   UNL     1     138.195 137.935 145.092  1.00  0.00     0.126 A 
ATOM     12  N   UNL     1     139.397 137.561 144.670  1.00  0.00    -0.262 N 
ATOM     13  N   UNL     1     139.846 138.524 143.775  1.00  0.00    -0.168 NA
ATOM     14  C   UNL     1     138.911 139.459 143.670  1.00  0.00     0.167 A 
ATOM     15  C   UNL     1     137.879 139.106 144.476  1.00  0.00     0.069 A 
ATOM     16  C   UNL     1     140.131 136.372 145.060  1.00  0.00     0.174 C 
BRANCH  14  17
ATOM     17  C   UNL     1     138.947 140.716 142.809  1.00  0.00     0.435 C 
ATOM     18  F   UNL     1     138.172 141.684 143.375  1.00  0.00    -0.164 F 
ATOM     19  F   UNL     1     138.484 140.434 141.558  1.00  0.00    -0.164 F 
ATOM     20  F   UNL     1     140.234 141.156 142.729  1.00  0.00    -0.164 F 
ENDBRANCH  14  17
ENDBRANCH   8  11
ENDBRANCH   6   7
BRANCH   3  21
ATOM     21  S   UNL     1     133.131 136.123 151.879  1.00  0.00     0.243 S 
ATOM     22  O   UNL     1     133.764 135.118 152.727  1.00  0.00    -0.207 OA
ATOM     23  O   UNL     1     131.996 135.385 151.330  1.00  0.00    -0.207 OA
BRANCH  21  24
ATOM     24  N   UNL     1     132.641 137.504 152.765  1.00  0.00    -0.195 NA
ATOM     25  C   UNL     1     133.285 137.813 154.110  1.00  0.00     0.074 C 
ATOM     26  C   UNL     1     132.381 138.827 152.053  1.00  0.00     0.103 C 
ATOM     27  C   UNL     1     134.464 138.768 154.003  1.00  0.00     0.020 C 
ATOM     28  C   UNL     1     133.591 139.744 151.987  1.00  0.00     0.017 C 
ATOM     29  C   UNL     1     134.151 139.995 153.295  1.00  0.00     0.003 C 
BRANCH  25  30
ATOM     30  C   UNL     1     132.248 138.406 155.035  1.00  0.00     0.036 C 
BRANCH  30  31
ATOM     31  C   UNL     1     131.045 137.468 155.083  1.00  0.00     0.086 C 
BRANCH  31  32
ATOM     32  N   UNL     1     130.410 137.640 156.162  1.00  0.00    -0.299 NA
ATOM     33  C   UNL     1     131.238 138.225 157.099  1.00  0.00     0.113 C 
ATOM     34  C   UNL     1     129.271 138.388 155.939  1.00  0.00     0.113 C 
ATOM     35  C   UNL     1     130.497 138.490 158.408  1.00  0.00     0.175 C 
ATOM     36  C   UNL     1     128.519 138.671 157.238  1.00  0.00     0.175 C 
ATOM     37  O   UNL     1     129.341 139.222 158.205  1.00  0.00    -0.379 OA
ENDBRANCH  31  32
ENDBRANCH  30  31
ENDBRANCH  25  30
ENDBRANCH  21  24
ENDBRANCH   3  21
TORSDOF 8
ENDMDL
MODEL 4
REMARK VINA RESULT:    -8.809      5.973     12.028
REMARK INTER + INTRA:         -14.146
REMARK INTER:                 -12.705
REMARK INTRA:                  -1.441
REMARK UNBOUND:                -1.218
REMARK SMILES Cn1nc(C(F)(F)F)cc1C(=O)Nc1ccc(S(=O)(=O)N2CCCC[C@H]2CCN2CCOCC2)cc1
REMARK SMILES IDX 16 1 15 2 17 3 35 4 36 5 14 6 13 7 11 8 12 9 10 11 2 12 3 13
REMARK SMILES IDX 4 14 9 15 1 16 5 17 6 18 7 19 8 20 18 21 19 22 20 23 21 24
REMARK SMILES IDX 26 25 22 26 25 27 23 28 24 29 27 30 28 31 29 32 30 33 34 34
REMARK SMILES IDX 31 35 33 36 32 37
REMARK H PARENT 13 10
ROOT
ATOM      1  C   UNL     1     133.583 136.556 151.596  1.00  0.00     0.024 A 
ATOM      2  C   UNL     1     132.301 136.408 152.406  1.00  0.00     0.027 A 
ATOM      3  C   UNL     1     134.110 137.949 151.269  1.00  0.00     0.082 A 
ATOM      4  C   UNL     1     133.369 139.191 151.737  1.00  0.00     0.024 A 
ATOM      5  C   UNL     1     132.088 139.042 152.546  1.00  0.00     0.027 A 
ATOM      6  C   UNL     1     131.568 137.653 152.894  1.00  0.00     0.041 A 
ENDROOT
BRANCH   6   7
ATOM      7  N   UNL     1     130.332 137.522 153.631  1.00  0.00    -0.321 N 
ATOM      8  C   UNL     1     130.214 137.327 155.061  1.00  0.00     0.273 C 
ATOM      9  O   UNL     1     131.156 137.240 155.770  1.00  0.00    -0.267 OA
ATOM     10  H   UNL     1     129.496 137.569 153.115  1.00  0.00     0.170 HD
BRANCH   8  11
ATOM     11  C   UNL     1     128.783 137.280 155.580  1.00  0.00     0.126 A 
ATOM     12  N   UNL     1     128.234 137.879 156.631  1.00  0.00    -0.262 N 
ATOM     13  N   UNL     1     126.891 137.525 156.661  1.00  0.00    -0.168 NA
ATOM     14  C   UNL     1     126.651 136.723 155.630  1.00  0.00     0.167 A 
ATOM     15  C   UNL     1     127.813 136.566 154.948  1.00  0.00     0.069 A 
ATOM     16  C   UNL     1     128.894 138.743 157.589  1.00  0.00     0.174 C 
BRANCH  14  17
ATOM     17  C   UNL     1     125.325 136.078 155.244  1.00  0.00     0.435 C 
ATOM     18  F   UNL     1     125.496 134.735 155.090  1.00  0.00    -0.164 F 
ATOM     19  F   UNL     1     124.869 136.618 154.079  1.00  0.00    -0.164 F 
ATOM     20  F   UNL     1     124.420 136.308 156.237  1.00  0.00    -0.164 F 
ENDBRANCH  14  17
ENDBRANCH   8  11
ENDBRANCH   6   7
BRANCH   3  21
ATOM     21  S   UNL     1     135.624 138.145 150.298  1.00  0.00     0.243 S 
ATOM     22  O   UNL     1     136.605 137.107 150.598  1.00  0.00    -0.207 OA
ATOM     23  O   UNL     1     136.333 139.358 150.703  1.00  0.00    -0.207 OA
BRANCH  21  24
ATOM     24  N   UNL     1     135.188 138.168 148.643  1.00  0.00    -0.195 NA
ATOM     25  C   UNL     1     134.952 136.860 147.900  1.00  0.00     0.074 C 
ATOM     26  C   UNL     1     134.186 139.193 148.121  1.00  0.00     0.103 C 
ATOM     27  C   UNL     1     133.492 136.435 147.888  1.00  0.00     0.020 C 
ATOM     28  C   UNL     1     132.746 138.708 148.123  1.00  0.00     0.017 C 
ATOM     29  C   UNL     1     132.594 137.466 147.401  1.00  0.00     0.003 C 
BRANCH  25  30
ATOM     30  C   UNL     1     135.441 136.999 146.477  1.00  0.00     0.036 C 
BRANCH  30  31
ATOM     31  C   UNL     1     136.940 137.284 146.503  1.00  0.00     0.086 C 
BRANCH  31  32
ATOM     32  N   UNL     1     137.194 138.307 145.805  1.00  0.00    -0.299 NA
ATOM     33  C   UNL     1     138.392 138.132 145.142  1.00  0.00     0.113 C 
ATOM     34  C   UNL     1     136.154 138.569 144.934  1.00  0.00     0.113 C 
ATOM     35  C   UNL     1     138.716 139.329 144.253  1.00  0.00     0.175 C 
ATOM     36  C   UNL     1     136.463 139.760 144.030  1.00  0.00     0.175 C 
ATOM     37  O   UNL     1     137.680 139.621 143.385  1.00  0.00    -0.379 OA
ENDBRANCH  31  32
ENDBRANCH  30  31
ENDBRANCH  25  30
ENDBRANCH  21  24
ENDBRANCH   3  21
TORSDOF 8
ENDMDL
MODEL 5
REMARK VINA RESULT:    -8.805      4.525      5.495
REMARK INTER + INTRA:         -14.141
REMARK INTER:                 -13.246
REMARK INTRA:                  -0.895
REMARK UNBOUND:                -1.218
REMARK SMILES Cn1nc(C(F)(F)F)cc1C(=O)Nc1ccc(S(=O)(=O)N2CCCC[C@H]2CCN2CCOCC2)cc1
REMARK SMILES IDX 16 1 15 2 17 3 35 4 36 5 14 6 13 7 11 8 12 9 10 11 2 12 3 13
REMARK SMILES IDX 4 14 9 15 1 16 5 17 6 18 7 19 8 20 18 21 19 22 20 23 21 24
REMARK SMILES IDX 26 25 22 26 25 27 23 28 24 29 27 30 28 31 29 32 30 33 34 34
REMARK SMILES IDX 31 35 33 36 32 37
REMARK H PARENT 13 10
ROOT
ATOM      1  C   UNL     1     132.393 136.937 148.445  1.00  0.00     0.024 A 
ATOM      2  C   UNL     1     132.079 137.685 147.155  1.00  0.00     0.027 A 
ATOM      3  C   UNL     1     133.100 137.663 149.584  1.00  0.00     0.082 A 
ATOM      4  C   UNL     1     133.500 139.123 149.446  1.00  0.00     0.024 A 
ATOM      5  C   UNL     1     133.186 139.870 148.157  1.00  0.00     0.027 A 
ATOM      6  C   UNL     1     132.461 139.156 147.024  1.00  0.00     0.041 A 
ENDROOT
BRANCH   6   7
ATOM      7  N   UNL     1     132.200 139.862 145.791  1.00  0.00    -0.321 N 
ATOM      8  C   UNL     1     131.302 140.987 145.632  1.00  0.00     0.273 C 
ATOM      9  O   UNL     1     130.671 141.428 146.529  1.00  0.00    -0.267 OA
ATOM     10  H   UNL     1     132.676 139.551 144.987  1.00  0.00     0.170 HD
BRANCH   8  11
ATOM     11  C   UNL     1     131.264 141.577 144.228  1.00  0.00     0.126 A 
ATOM     12  N   UNL     1     132.256 141.976 143.440  1.00  0.00    -0.262 N 
ATOM     13  N   UNL     1     131.694 142.421 142.251  1.00  0.00    -0.168 NA
ATOM     14  C   UNL     1     130.377 142.282 142.338  1.00  0.00     0.167 A 
ATOM     15  C   UNL     1     130.096 141.756 143.556  1.00  0.00     0.069 A 
ATOM     16  C   UNL     1     133.674 141.964 143.744  1.00  0.00     0.174 C 
BRANCH  14  17
ATOM     17  C   UNL     1     129.334 142.635 141.284  1.00  0.00     0.435 C 
ATOM     18  F   UNL     1     128.165 142.984 141.892  1.00  0.00    -0.164 F 
ATOM     19  F   UNL     1     129.122 141.565 140.466  1.00  0.00    -0.164 F 
ATOM     20  F   UNL     1     129.792 143.687 140.548  1.00  0.00    -0.164 F 
ENDBRANCH  14  17
ENDBRANCH   8  11
ENDBRANCH   6   7
BRANCH   3  21
ATOM     21  S   UNL     1     133.492 136.788 151.118  1.00  0.00     0.243 S 
ATOM     22  O   UNL     1     134.910 136.879 151.454  1.00  0.00    -0.207 OA
ATOM     23  O   UNL     1     133.315 135.348 150.941  1.00  0.00    -0.207 OA
BRANCH  21  24
ATOM     24  N   UNL     1     132.491 137.420 152.354  1.00  0.00    -0.195 NA
ATOM     25  C   UNL     1     131.866 136.484 153.381  1.00  0.00     0.074 C 
ATOM     26  C   UNL     1     132.866 138.716 153.066  1.00  0.00     0.103 C 
ATOM     27  C   UNL     1     132.697 136.345 154.647  1.00  0.00     0.020 C 
ATOM     28  C   UNL     1     133.686 138.513 154.330  1.00  0.00     0.017 C 
ATOM     29  C   UNL     1     133.036 137.617 155.258  1.00  0.00     0.003 C 
BRANCH  25  30
ATOM     30  C   UNL     1     130.489 136.989 153.743  1.00  0.00     0.036 C 
BRANCH  30  31
ATOM     31  C   UNL     1     129.593 135.789 154.038  1.00  0.00     0.086 C 
BRANCH  31  32
ATOM     32  N   UNL     1     128.825 136.056 155.007  1.00  0.00    -0.299 NA
ATOM     33  C   UNL     1     128.829 137.417 155.241  1.00  0.00     0.113 C 
ATOM     34  C   UNL     1     127.553 135.578 154.761  1.00  0.00     0.113 C 
ATOM     35  C   UNL     1     127.880 137.789 156.377  1.00  0.00     0.175 C 
ATOM     36  C   UNL     1     126.585 135.946 155.884  1.00  0.00     0.175 C 
ATOM     37  O   UNL     1     126.603 137.302 156.161  1.00  0.00    -0.379 OA
ENDBRANCH  31  32
ENDBRANCH  30  31
ENDBRANCH  25  30
ENDBRANCH  21  24
ENDBRANCH   3  21
TORSDOF 8
ENDMDL
MODEL 6
REMARK VINA RESULT:    -8.693      4.242      5.041
REMARK INTER + INTRA:         -13.977
REMARK INTER:                 -12.814
REMARK INTRA:                  -1.163
REMARK UNBOUND:                -1.218
REMARK SMILES Cn1nc(C(F)(F)F)cc1C(=O)Nc1ccc(S(=O)(=O)N2CCCC[C@H]2CCN2CCOCC2)cc1
REMARK SMILES IDX 16 1 15 2 17 3 35 4 36 5 14 6 13 7 11 8 12 9 10 11 2 12 3 13
REMARK SMILES IDX 4 14 9 15 1 16 5 17 6 18 7 19 8 20 18 21 19 22 20 23 21 24
REMARK SMILES IDX 26 25 22 26 25 27 23 28 24 29 27 30 28 31 29 32 30 33 34 34
REMARK SMILES IDX 31 35 33 36 32 37
REMARK H PARENT 13 10
ROOT
ATOM      1  C   UNL     1     132.656 138.191 149.271  1.00  0.00     0.024 A 
ATOM      2  C   UNL     1     132.271 138.589 147.851  1.00  0.00     0.027 A 
ATOM      3  C   UNL     1     133.420 136.892 149.508  1.00  0.00     0.082 A 
ATOM      4  C   UNL     1     133.799 135.989 148.345  1.00  0.00     0.024 A 
ATOM      5  C   UNL     1     133.414 136.389 146.927  1.00  0.00     0.027 A 
ATOM      6  C   UNL     1     132.669 137.694 146.682  1.00  0.00     0.041 A 
ENDROOT
BRANCH   6   7
ATOM      7  N   UNL     1     132.276 138.047 145.337  1.00  0.00    -0.321 N 
ATOM      8  C   UNL     1     132.898 139.060 144.510  1.00  0.00     0.273 C 
ATOM      9  O   UNL     1     133.805 139.719 144.887  1.00  0.00    -0.267 OA
ATOM     10  H   UNL     1     131.518 137.555 144.948  1.00  0.00     0.170 HD
BRANCH   8  11
ATOM     11  C   UNL     1     132.317 139.181 143.107  1.00  0.00     0.126 A 
ATOM     12  N   UNL     1     132.693 138.604 141.972  1.00  0.00    -0.262 N 
ATOM     13  N   UNL     1     131.824 139.031 140.976  1.00  0.00    -0.168 NA
ATOM     14  C   UNL     1     130.939 139.854 141.525  1.00  0.00     0.167 A 
ATOM     15  C   UNL     1     131.228 139.953 142.846  1.00  0.00     0.069 A 
ATOM     16  C   UNL     1     133.807 137.696 141.780  1.00  0.00     0.174 C 
BRANCH  14  17
ATOM     17  C   UNL     1     129.788 140.575 140.833  1.00  0.00     0.435 C 
ATOM     18  F   UNL     1     130.232 141.752 140.308  1.00  0.00    -0.164 F 
ATOM     19  F   UNL     1     128.791 140.821 141.728  1.00  0.00    -0.164 F 
ATOM     20  F   UNL     1     129.314 139.783 139.830  1.00  0.00    -0.164 F 
ENDBRANCH  14  17
ENDBRANCH   8  11
ENDBRANCH   6   7
BRANCH   3  21
ATOM     21  S   UNL     1     133.874 136.396 151.186  1.00  0.00     0.243 S 
ATOM     22  O   UNL     1     135.263 136.721 151.497  1.00  0.00    -0.207 OA
ATOM     23  O   UNL     1     133.871 134.939 151.304  1.00  0.00    -0.207 OA
BRANCH  21  24
ATOM     24  N   UNL     1     132.777 137.137 152.270  1.00  0.00    -0.195 NA
ATOM     25  C   UNL     1     132.026 136.292 153.291  1.00  0.00     0.074 C 
ATOM     26  C   UNL     1     133.119 138.472 152.925  1.00  0.00     0.103 C 
ATOM     27  C   UNL     1     132.724 136.224 154.640  1.00  0.00     0.020 C 
ATOM     28  C   UNL     1     133.805 138.341 154.276  1.00  0.00     0.017 C 
ATOM     29  C   UNL     1     133.040 137.528 155.194  1.00  0.00     0.003 C 
BRANCH  25  30
ATOM     30  C   UNL     1     130.636 136.853 153.478  1.00  0.00     0.036 C 
BRANCH  30  31
ATOM     31  C   UNL     1     129.717 135.731 153.955  1.00  0.00     0.086 C 
BRANCH  31  32
ATOM     32  N   UNL     1     129.035 136.127 154.943  1.00  0.00    -0.299 NA
ATOM     33  C   UNL     1     128.920 137.502 154.906  1.00  0.00     0.113 C 
ATOM     34  C   UNL     1     127.801 135.505 154.958  1.00  0.00     0.113 C 
ATOM     35  C   UNL     1     128.065 138.019 156.061  1.00  0.00     0.175 C 
ATOM     36  C   UNL     1     126.928 136.015 156.102  1.00  0.00     0.175 C 
ATOM     37  O   UNL     1     126.831 137.395 156.107  1.00  0.00    -0.379 OA
ENDBRANCH  31  32
ENDBRANCH  30  31
ENDBRANCH  25  30
ENDBRANCH  21  24
ENDBRANCH   3  21
TORSDOF 8
ENDMDL
MODEL 7
REMARK VINA RESULT:    -8.689      5.695     11.850
REMARK INTER + INTRA:         -13.971
REMARK INTER:                 -12.752
REMARK INTRA:                  -1.218
REMARK UNBOUND:                -1.218
REMARK SMILES Cn1nc(C(F)(F)F)cc1C(=O)Nc1ccc(S(=O)(=O)N2CCCC[C@H]2CCN2CCOCC2)cc1
REMARK SMILES IDX 16 1 15 2 17 3 35 4 36 5 14 6 13 7 11 8 12 9 10 11 2 12 3 13
REMARK SMILES IDX 4 14 9 15 1 16 5 17 6 18 7 19 8 20 18 21 19 22 20 23 21 24
REMARK SMILES IDX 26 25 22 26 25 27 23 28 24 29 27 30 28 31 29 32 30 33 34 34
REMARK SMILES IDX 31 35 33 36 32 37
REMARK H PARENT 13 10
ROOT
ATOM      1  C   UNL     1     135.445 137.646 149.444  1.00  0.00     0.024 A 
ATOM      2  C   UNL     1     134.707 137.716 150.775  1.00  0.00     0.027 A 
ATOM      3  C   UNL     1     134.748 137.048 148.226  1.00  0.00     0.082 A 
ATOM      4  C   UNL     1     133.327 136.515 148.327  1.00  0.00     0.024 A 
ATOM      5  C   UNL     1     132.591 136.585 149.658  1.00  0.00     0.027 A 
ATOM      6  C   UNL     1     133.275 137.201 150.872  1.00  0.00     0.041 A 
ENDROOT
BRANCH   6   7
ATOM      7  N   UNL     1     132.581 137.229 152.139  1.00  0.00    -0.321 N 
ATOM      8  C   UNL     1     132.028 138.406 152.777  1.00  0.00     0.273 C 
ATOM      9  O   UNL     1     132.115 139.486 152.302  1.00  0.00    -0.267 OA
ATOM     10  H   UNL     1     132.475 136.373 152.611  1.00  0.00     0.170 HD
BRANCH   8  11
ATOM     11  C   UNL     1     131.296 138.136 154.085  1.00  0.00     0.126 A 
ATOM     12  N   UNL     1     131.723 137.556 155.201  1.00  0.00    -0.262 N 
ATOM     13  N   UNL     1     130.672 137.568 156.109  1.00  0.00    -0.168 NA
ATOM     14  C   UNL     1     129.632 138.155 155.529  1.00  0.00     0.167 A 
ATOM     15  C   UNL     1     130.005 138.516 154.276  1.00  0.00     0.069 A 
ATOM     16  C   UNL     1     133.039 137.000 155.449  1.00  0.00     0.174 C 
BRANCH  14  17
ATOM     17  C   UNL     1     128.252 138.401 156.128  1.00  0.00     0.435 C 
ATOM     18  F   UNL     1     128.374 139.095 157.295  1.00  0.00    -0.164 F 
ATOM     19  F   UNL     1     127.632 137.211 156.367  1.00  0.00    -0.164 F 
ATOM     20  F   UNL     1     127.513 139.129 155.244  1.00  0.00    -0.164 F 
ENDBRANCH  14  17
ENDBRANCH   8  11
ENDBRANCH   6   7
BRANCH   3  21
ATOM     21  S   UNL     1     135.611 136.946 146.641  1.00  0.00     0.243 S 
ATOM     22  O   UNL     1     135.403 135.658 145.985  1.00  0.00    -0.207 OA
ATOM     23  O   UNL     1     137.058 136.949 146.848  1.00  0.00    -0.207 OA
BRANCH  21  24
ATOM     24  N   UNL     1     135.090 138.258 145.672  1.00  0.00    -0.195 NA
ATOM     25  C   UNL     1     134.449 137.995 144.316  1.00  0.00     0.074 C 
ATOM     26  C   UNL     1     134.382 139.452 146.304  1.00  0.00     0.103 C 
ATOM     27  C   UNL     1     132.931 137.929 144.375  1.00  0.00     0.020 C 
ATOM     28  C   UNL     1     132.867 139.333 146.325  1.00  0.00     0.017 C 
ATOM     29  C   UNL     1     132.326 139.086 145.009  1.00  0.00     0.003 C 
BRANCH  25  30
ATOM     30  C   UNL     1     134.861 139.082 143.351  1.00  0.00     0.036 C 
BRANCH  30  31
ATOM     31  C   UNL     1     136.324 138.867 142.971  1.00  0.00     0.086 C 
BRANCH  31  32
ATOM     32  N   UNL     1     136.873 139.980 142.732  1.00  0.00    -0.299 NA
ATOM     33  C   UNL     1     136.831 140.236 141.376  1.00  0.00     0.113 C 
ATOM     34  C   UNL     1     136.271 140.983 143.466  1.00  0.00     0.113 C 
ATOM     35  C   UNL     1     137.447 141.594 141.047  1.00  0.00     0.175 C 
ATOM     36  C   UNL     1     136.869 142.352 143.146  1.00  0.00     0.175 C 
ATOM     37  O   UNL     1     136.872 142.612 141.787  1.00  0.00    -0.379 OA
ENDBRANCH  31  32
ENDBRANCH  30  31
ENDBRANCH  25  30
ENDBRANCH  21  24
ENDBRANCH   3  21
TORSDOF 8
ENDMDL
MODEL 8
REMARK VINA RESULT:    -8.524      7.309     11.131
REMARK INTER + INTRA:         -13.729
REMARK INTER:                 -12.570
REMARK INTRA:                  -1.159
REMARK UNBOUND:                -1.218
REMARK SMILES Cn1nc(C(F)(F)F)cc1C(=O)Nc1ccc(S(=O)(=O)N2CCCC[C@H]2CCN2CCOCC2)cc1
REMARK SMILES IDX 16 1 15 2 17 3 35 4 36 5 14 6 13 7 11 8 12 9 10 11 2 12 3 13
REMARK SMILES IDX 4 14 9 15 1 16 5 17 6 18 7 19 8 20 18 21 19 22 20 23 21 24
REMARK SMILES IDX 26 25 22 26 25 27 23 28 24 29 27 30 28 31 29 32 30 33 34 34
REMARK SMILES IDX 31 35 33 36 32 37
REMARK H PARENT 13 10
ROOT
ATOM      1  C   UNL     1     132.362 139.172 144.910  1.00  0.00     0.024 A 
ATOM      2  C   UNL     1     132.393 138.606 146.324  1.00  0.00     0.027 A 
ATOM      3  C   UNL     1     132.524 140.673 144.695  1.00  0.00     0.082 A 
ATOM      4  C   UNL     1     132.712 141.612 145.876  1.00  0.00     0.024 A 
ATOM      5  C   UNL     1     132.744 141.046 147.289  1.00  0.00     0.027 A 
ATOM      6  C   UNL     1     132.603 139.545 147.508  1.00  0.00     0.041 A 
ENDROOT
BRANCH   6   7
ATOM      7  N   UNL     1     132.598 139.021 148.854  1.00  0.00    -0.321 N 
ATOM      8  C   UNL     1     133.715 139.038 149.775  1.00  0.00     0.273 C 
ATOM      9  O   UNL     1     134.771 139.485 149.485  1.00  0.00    -0.267 OA
ATOM     10  H   UNL     1     131.760 138.617 149.175  1.00  0.00     0.170 HD
BRANCH   8  11
ATOM     11  C   UNL     1     133.411 138.468 151.155  1.00  0.00     0.126 A 
ATOM     12  N   UNL     1     133.986 137.469 151.814  1.00  0.00    -0.262 N 
ATOM     13  N   UNL     1     133.350 137.357 153.044  1.00  0.00    -0.168 NA
ATOM     14  C   UNL     1     132.407 138.289 153.108  1.00  0.00     0.167 A 
ATOM     15  C   UNL     1     132.436 138.989 151.947  1.00  0.00     0.069 A 
ATOM     16  C   UNL     1     135.075 136.630 151.354  1.00  0.00     0.174 C 
BRANCH  14  17
ATOM     17  C   UNL     1     131.447 138.560 154.260  1.00  0.00     0.435 C 
ATOM     18  F   UNL     1     130.296 139.111 153.780  1.00  0.00    -0.164 F 
ATOM     19  F   UNL     1     132.024 139.413 155.154  1.00  0.00    -0.164 F 
ATOM     20  F   UNL     1     131.159 137.380 154.879  1.00  0.00    -0.164 F 
ENDBRANCH  14  17
ENDBRANCH   8  11
ENDBRANCH   6   7
BRANCH   3  21
ATOM     21  S   UNL     1     132.476 141.365 143.025  1.00  0.00     0.243 S 
ATOM     22  O   UNL     1     133.659 141.004 142.249  1.00  0.00    -0.207 OA
ATOM     23  O   UNL     1     132.581 142.822 143.075  1.00  0.00    -0.207 OA
BRANCH  21  24
ATOM     24  N   UNL     1     131.027 140.842 142.279  1.00  0.00    -0.195 NA
ATOM     25  C   UNL     1     129.730 141.606 142.517  1.00  0.00     0.074 C 
ATOM     26  C   UNL     1     131.031 140.363 140.831  1.00  0.00     0.103 C 
ATOM     27  C   UNL     1     129.452 142.658 141.455  1.00  0.00     0.020 C 
ATOM     28  C   UNL     1     130.736 141.456 139.816  1.00  0.00     0.017 C 
ATOM     29  C   UNL     1     129.494 142.137 140.101  1.00  0.00     0.003 C 
BRANCH  25  30
ATOM     30  C   UNL     1     128.578 140.629 142.564  1.00  0.00     0.036 C 
BRANCH  30  31
ATOM     31  C   UNL     1     127.480 141.213 143.449  1.00  0.00     0.086 C 
BRANCH  31  32
ATOM     32  N   UNL     1     126.349 141.004 142.923  1.00  0.00    -0.299 NA
ATOM     33  C   UNL     1     125.736 142.210 142.646  1.00  0.00     0.113 C 
ATOM     34  C   UNL     1     126.479 140.219 141.794  1.00  0.00     0.113 C 
ATOM     35  C   UNL     1     124.383 142.003 141.969  1.00  0.00     0.175 C 
ATOM     36  C   UNL     1     125.136 140.006 141.098  1.00  0.00     0.175 C 
ATOM     37  O   UNL     1     124.487 141.202 140.846  1.00  0.00    -0.379 OA
ENDBRANCH  31  32
ENDBRANCH  30  31
ENDBRANCH  25  30
ENDBRANCH  21  24
ENDBRANCH   3  21
TORSDOF 8
ENDMDL
MODEL 9
REMARK VINA RESULT:    -8.516      1.623      2.175
REMARK INTER + INTRA:         -13.716
REMARK INTER:                 -12.538
REMARK INTRA:                  -1.178
REMARK UNBOUND:                -1.218
REMARK SMILES Cn1nc(C(F)(F)F)cc1C(=O)Nc1ccc(S(=O)(=O)N2CCCC[C@H]2CCN2CCOCC2)cc1
REMARK SMILES IDX 16 1 15 2 17 3 35 4 36 5 14 6 13 7 11 8 12 9 10 11 2 12 3 13
REMARK SMILES IDX 4 14 9 15 1 16 5 17 6 18 7 19 8 20 18 21 19 22 20 23 21 24
REMARK SMILES IDX 26 25 22 26 25 27 23 28 24 29 27 30 28 31 29 32 30 33 34 34
REMARK SMILES IDX 31 35 33 36 32 37
REMARK H PARENT 13 10
ROOT
ATOM      1  C   UNL     1     135.424 136.742 150.859  1.00  0.00     0.024 A 
ATOM      2  C   UNL     1     136.166 137.341 149.671  1.00  0.00     0.027 A 
ATOM      3  C   UNL     1     133.918 136.515 150.771  1.00  0.00     0.082 A 
ATOM      4  C   UNL     1     133.149 136.883 149.512  1.00  0.00     0.024 A 
ATOM      5  C   UNL     1     133.891 137.481 148.325  1.00  0.00     0.027 A 
ATOM      6  C   UNL     1     135.398 137.691 148.400  1.00  0.00     0.041 A 
ENDROOT
BRANCH   6   7
ATOM      7  N   UNL     1     136.088 138.293 147.283  1.00  0.00    -0.321 N 
ATOM      8  C   UNL     1     136.616 137.589 146.133  1.00  0.00     0.273 C 
ATOM      9  O   UNL     1     136.537 136.415 146.016  1.00  0.00    -0.267 OA
ATOM     10  H   UNL     1     136.210 139.269 147.305  1.00  0.00     0.170 HD
BRANCH   8  11
ATOM     11  C   UNL     1     137.246 138.483 145.073  1.00  0.00     0.126 A 
ATOM     12  N   UNL     1     138.465 138.458 144.546  1.00  0.00    -0.262 N 
ATOM     13  N   UNL     1     138.536 139.477 143.605  1.00  0.00    -0.168 NA
ATOM     14  C   UNL     1     137.363 140.097 143.578  1.00  0.00     0.167 A 
ATOM     15  C   UNL     1     136.551 139.490 144.478  1.00  0.00     0.069 A 
ATOM     16  C   UNL     1     139.543 137.547 144.879  1.00  0.00     0.174 C 
BRANCH  14  17
ATOM     17  C   UNL     1     136.958 141.280 142.705  1.00  0.00     0.435 C 
ATOM     18  F   UNL     1     138.020 142.120 142.548  1.00  0.00    -0.164 F 
ATOM     19  F   UNL     1     135.924 141.952 143.285  1.00  0.00    -0.164 F 
ATOM     20  F   UNL     1     136.569 140.812 141.485  1.00  0.00    -0.164 F 
ENDBRANCH  14  17
ENDBRANCH   8  11
ENDBRANCH   6   7
BRANCH   3  21
ATOM     21  S   UNL     1     133.018 135.817 152.175  1.00  0.00     0.243 S 
ATOM     22  O   UNL     1     133.902 135.110 153.096  1.00  0.00    -0.207 OA
ATOM     23  O   UNL     1     132.130 134.745 151.727  1.00  0.00    -0.207 OA
BRANCH  21  24
ATOM     24  N   UNL     1     132.167 137.090 152.940  1.00  0.00    -0.195 NA
ATOM     25  C   UNL     1     132.050 137.123 154.458  1.00  0.00     0.074 C 
ATOM     26  C   UNL     1     132.317 138.526 152.448  1.00  0.00     0.103 C 
ATOM     27  C   UNL     1     133.135 137.956 155.123  1.00  0.00     0.020 C 
ATOM     28  C   UNL     1     133.409 139.312 153.156  1.00  0.00     0.017 C 
ATOM     29  C   UNL     1     133.237 139.303 154.591  1.00  0.00     0.003 C 
BRANCH  25  30
ATOM     30  C   UNL     1     130.696 137.672 154.843  1.00  0.00     0.036 C 
BRANCH  30  31
ATOM     31  C   UNL     1     129.618 136.772 154.245  1.00  0.00     0.086 C 
BRANCH  31  32
ATOM     32  N   UNL     1     128.777 136.462 155.136  1.00  0.00    -0.299 NA
ATOM     33  C   UNL     1     128.273 137.608 155.718  1.00  0.00     0.113 C 
ATOM     34  C   UNL     1     127.777 135.671 154.602  1.00  0.00     0.113 C 
ATOM     35  C   UNL     1     127.219 137.279 156.773  1.00  0.00     0.175 C 
ATOM     36  C   UNL     1     126.708 135.337 155.641  1.00  0.00     0.175 C 
ATOM     37  O   UNL     1     126.218 136.471 156.265  1.00  0.00    -0.379 OA
ENDBRANCH  31  32
ENDBRANCH  30  31
ENDBRANCH  25  30
ENDBRANCH  21  24
ENDBRANCH   3  21
TORSDOF 8
ENDMDL
