MODEL 1
REMARK VINA RESULT:    -6.127      0.000      0.000
REMARK INTER + INTRA:          -8.521
REMARK INTER:                  -7.738
REMARK INTRA:                  -0.782
REMARK UNBOUND:                -0.782
REMARK SMILES NC(=O)c1ncn(C2OC(CO)C(O)C2O)n1
REMARK SMILES IDX 8 1 15 2 13 3 10 4 9 5 7 6 6 7 5 8 4 9 17 10 2 11 3 12 1 13
REMARK SMILES IDX 16 16 14 18 11 20 12 21
REMARK H PARENT 1 14 1 15 16 17 14 19 12 22
ROOT
ATOM      1  C   UNL     1     134.971 138.873 150.549  1.00  0.00     0.270 C 
ATOM      2  C   UNL     1     134.230 139.880 149.661  1.00  0.00     0.197 C 
ATOM      3  C   UNL     1     133.031 139.072 149.204  1.00  0.00     0.179 C 
ATOM      4  C   UNL     1     133.680 137.713 148.972  1.00  0.00     0.178 C 
ATOM      5  O   UNL     1     134.703 137.563 149.969  1.00  0.00    -0.345 OA
ENDROOT
BRANCH   1   6
ATOM      6  N   UNL     1     134.633 138.808 151.963  1.00  0.00    -0.221 N 
ATOM      7  C   UNL     1     134.072 137.801 152.680  1.00  0.00     0.223 A 
ATOM      8  N   UNL     1     134.010 138.134 153.948  1.00  0.00    -0.211 NA
ATOM      9  C   UNL     1     134.540 139.405 153.982  1.00  0.00     0.239 A 
ATOM     10  N   UNL     1     134.929 139.860 152.770  1.00  0.00    -0.143 NA
BRANCH   9  11
ATOM     11  C   UNL     1     134.674 140.211 155.211  1.00  0.00     0.288 C 
ATOM     12  O   UNL     1     135.737 140.589 155.698  1.00  0.00    -0.266 OA
ATOM     13  N   UNL     1     133.481 140.526 155.813  1.00  0.00    -0.363 N 
ATOM     14  H   UNL     1     133.490 141.013 156.695  1.00  0.00     0.160 HD
ATOM     15  H   UNL     1     132.623 140.151 155.425  1.00  0.00     0.160 HD
ENDBRANCH   9  11
ENDBRANCH   1   6
BRANCH   2  16
ATOM     16  O   UNL     1     133.870 141.115 150.256  1.00  0.00    -0.386 OA
ATOM     17  H   UNL     1     133.057 141.410 149.799  1.00  0.00     0.211 HD
ENDBRANCH   2  16
BRANCH   3  18
ATOM     18  O   UNL     1     132.449 139.632 148.035  1.00  0.00    -0.387 OA
ATOM     19  H   UNL     1     132.896 139.196 147.278  1.00  0.00     0.211 HD
ENDBRANCH   3  18
BRANCH   4  20
ATOM     20  C   UNL     1     132.672 136.571 149.039  1.00  0.00     0.191 C 
BRANCH  20  21
ATOM     21  O   UNL     1     131.859 136.573 147.867  1.00  0.00    -0.394 OA
ATOM     22  H   UNL     1     131.026 137.019 148.108  1.00  0.00     0.210 HD
ENDBRANCH  20  21
ENDBRANCH   4  20
TORSDOF 6
ENDMDL
MODEL 2
REMARK VINA RESULT:    -6.059      2.707      4.170
REMARK INTER + INTRA:          -8.436
REMARK INTER:                  -7.639
REMARK INTRA:                  -0.796
REMARK UNBOUND:                -0.782
REMARK SMILES NC(=O)c1ncn(C2OC(CO)C(O)C2O)n1
REMARK SMILES IDX 8 1 15 2 13 3 10 4 9 5 7 6 6 7 5 8 4 9 17 10 2 11 3 12 1 13
REMARK SMILES IDX 16 16 14 18 11 20 12 21
REMARK H PARENT 1 14 1 15 16 17 14 19 12 22
ROOT
ATOM      1  C   UNL     1     133.009 137.665 153.048  1.00  0.00     0.270 C 
ATOM      2  C   UNL     1     133.627 136.439 152.364  1.00  0.00     0.197 C 
ATOM      3  C   UNL     1     134.865 137.030 151.720  1.00  0.00     0.179 C 
ATOM      4  C   UNL     1     134.319 138.367 151.234  1.00  0.00     0.178 C 
ATOM      5  O   UNL     1     133.356 138.803 152.206  1.00  0.00    -0.345 OA
ENDROOT
BRANCH   1   6
ATOM      6  N   UNL     1     133.413 137.982 154.409  1.00  0.00    -0.221 N 
ATOM      7  C   UNL     1     134.194 138.990 154.875  1.00  0.00     0.223 A 
ATOM      8  N   UNL     1     134.242 138.951 156.185  1.00  0.00    -0.211 NA
ATOM      9  C   UNL     1     133.471 137.857 156.512  1.00  0.00     0.239 A 
ATOM     10  N   UNL     1     132.948 137.226 155.437  1.00  0.00    -0.143 NA
BRANCH   9  11
ATOM     11  C   UNL     1     133.232 137.398 157.895  1.00  0.00     0.288 C 
ATOM     12  O   UNL     1     132.303 137.762 158.610  1.00  0.00    -0.266 OA
ATOM     13  N   UNL     1     134.161 136.500 158.360  1.00  0.00    -0.363 N 
ATOM     14  H   UNL     1     134.108 136.194 159.319  1.00  0.00     0.160 HD
ATOM     15  H   UNL     1     134.951 136.264 157.772  1.00  0.00     0.160 HD
ENDBRANCH   9  11
ENDBRANCH   1   6
BRANCH   2  16
ATOM     16  O   UNL     1     133.912 135.321 153.188  1.00  0.00    -0.386 OA
ATOM     17  H   UNL     1     134.439 135.665 153.937  1.00  0.00     0.211 HD
ENDBRANCH   2  16
BRANCH   3  18
ATOM     18  O   UNL     1     135.349 136.199 150.674  1.00  0.00    -0.387 OA
ATOM     19  H   UNL     1     134.558 135.929 150.160  1.00  0.00     0.211 HD
ENDBRANCH   3  18
BRANCH   4  20
ATOM     20  C   UNL     1     135.418 139.406 151.039  1.00  0.00     0.191 C 
BRANCH  20  21
ATOM     21  O   UNL     1     136.369 138.934 150.088  1.00  0.00    -0.394 OA
ATOM     22  H   UNL     1     136.155 137.996 149.924  1.00  0.00     0.210 HD
ENDBRANCH  20  21
ENDBRANCH   4  20
TORSDOF 6
ENDMDL
MODEL 3
REMARK VINA RESULT:    -5.952      2.668      5.891
REMARK INTER + INTRA:          -8.300
REMARK INTER:                  -7.519
REMARK INTRA:                  -0.782
REMARK UNBOUND:                -0.782
REMARK SMILES NC(=O)c1ncn(C2OC(CO)C(O)C2O)n1
REMARK SMILES IDX 8 1 15 2 13 3 10 4 9 5 7 6 6 7 5 8 4 9 17 10 2 11 3 12 1 13
REMARK SMILES IDX 16 16 14 18 11 20 12 21
REMARK H PARENT 1 14 1 15 16 17 14 19 12 22
ROOT
ATOM      1  C   UNL     1     132.738 139.112 152.339  1.00  0.00     0.270 C 
ATOM      2  C   UNL     1     134.034 139.856 152.682  1.00  0.00     0.197 C 
ATOM      3  C   UNL     1     134.385 139.267 154.034  1.00  0.00     0.179 C 
ATOM      4  C   UNL     1     133.002 139.175 154.668  1.00  0.00     0.178 C 
ATOM      5  O   UNL     1     132.080 138.856 153.614  1.00  0.00    -0.345 OA
ENDROOT
BRANCH   1   6
ATOM      6  N   UNL     1     132.828 137.848 151.625  1.00  0.00    -0.221 N 
ATOM      7  C   UNL     1     132.668 136.577 152.077  1.00  0.00     0.223 A 
ATOM      8  N   UNL     1     132.760 135.731 151.079  1.00  0.00    -0.211 NA
ATOM      9  C   UNL     1     133.006 136.534 149.987  1.00  0.00     0.239 A 
ATOM     10  N   UNL     1     133.064 137.850 150.288  1.00  0.00    -0.143 NA
BRANCH   9  11
ATOM     11  C   UNL     1     133.198 136.024 148.615  1.00  0.00     0.288 C 
ATOM     12  O   UNL     1     134.100 135.270 148.260  1.00  0.00    -0.266 OA
ATOM     13  N   UNL     1     132.266 136.471 147.711  1.00  0.00    -0.363 N 
ATOM     14  H   UNL     1     132.369 136.226 146.739  1.00  0.00     0.160 HD
ATOM     15  H   UNL     1     131.569 137.140 148.017  1.00  0.00     0.160 HD
ENDBRANCH   9  11
ENDBRANCH   1   6
BRANCH   2  16
ATOM     16  O   UNL     1     135.095 139.762 151.746  1.00  0.00    -0.386 OA
ATOM     17  H   UNL     1     135.455 138.856 151.835  1.00  0.00     0.211 HD
ENDBRANCH   2  16
BRANCH   3  18
ATOM     18  O   UNL     1     135.282 140.109 154.746  1.00  0.00    -0.387 OA
ATOM     19  H   UNL     1     136.084 140.179 154.186  1.00  0.00     0.211 HD
ENDBRANCH   3  18
BRANCH   4  20
ATOM     20  C   UNL     1     132.945 138.138 155.785  1.00  0.00     0.191 C 
BRANCH  20  21
ATOM     21  O   UNL     1     133.958 138.410 156.750  1.00  0.00    -0.394 OA
ATOM     22  H   UNL     1     133.918 137.689 157.406  1.00  0.00     0.210 HD
ENDBRANCH  20  21
ENDBRANCH   4  20
TORSDOF 6
ENDMDL
MODEL 4
REMARK VINA RESULT:    -5.938      2.298      3.604
REMARK INTER + INTRA:          -8.282
REMARK INTER:                  -7.721
REMARK INTRA:                  -0.561
REMARK UNBOUND:                -0.782
REMARK SMILES NC(=O)c1ncn(C2OC(CO)C(O)C2O)n1
REMARK SMILES IDX 8 1 15 2 13 3 10 4 9 5 7 6 6 7 5 8 4 9 17 10 2 11 3 12 1 13
REMARK SMILES IDX 16 16 14 18 11 20 12 21
REMARK H PARENT 1 14 1 15 16 17 14 19 12 22
ROOT
ATOM      1  C   UNL     1     132.873 137.030 152.587  1.00  0.00     0.270 C 
ATOM      2  C   UNL     1     133.916 136.134 151.907  1.00  0.00     0.197 C 
ATOM      3  C   UNL     1     134.908 137.152 151.381  1.00  0.00     0.179 C 
ATOM      4  C   UNL     1     133.963 138.248 150.905  1.00  0.00     0.178 C 
ATOM      5  O   UNL     1     132.853 138.267 151.817  1.00  0.00    -0.345 OA
ENDROOT
BRANCH   1   6
ATOM      6  N   UNL     1     133.062 137.382 153.986  1.00  0.00    -0.221 N 
ATOM      7  C   UNL     1     132.622 136.759 155.109  1.00  0.00     0.223 A 
ATOM      8  N   UNL     1     133.083 137.373 156.173  1.00  0.00    -0.211 NA
ATOM      9  C   UNL     1     133.813 138.422 155.658  1.00  0.00     0.239 A 
ATOM     10  N   UNL     1     133.816 138.465 154.307  1.00  0.00    -0.143 NA
BRANCH   9  11
ATOM     11  C   UNL     1     134.526 139.416 156.484  1.00  0.00     0.288 C 
ATOM     12  O   UNL     1     134.879 139.246 157.648  1.00  0.00    -0.266 OA
ATOM     13  N   UNL     1     134.778 140.605 155.846  1.00  0.00    -0.363 N 
ATOM     14  H   UNL     1     135.197 141.360 156.364  1.00  0.00     0.160 HD
ATOM     15  H   UNL     1     134.423 140.741 154.906  1.00  0.00     0.160 HD
ENDBRANCH   9  11
ENDBRANCH   1   6
BRANCH   2  16
ATOM     16  O   UNL     1     134.521 135.134 152.708  1.00  0.00    -0.386 OA
ATOM     17  H   UNL     1     134.048 134.301 152.505  1.00  0.00     0.211 HD
ENDBRANCH   2  16
BRANCH   3  18
ATOM     18  O   UNL     1     135.710 136.602 150.345  1.00  0.00    -0.387 OA
ATOM     19  H   UNL     1     135.475 135.650 150.301  1.00  0.00     0.211 HD
ENDBRANCH   3  18
BRANCH   4  20
ATOM     20  C   UNL     1     134.643 139.611 150.833  1.00  0.00     0.191 C 
BRANCH  20  21
ATOM     21  O   UNL     1     134.474 140.301 152.069  1.00  0.00    -0.394 OA
ATOM     22  H   UNL     1     134.008 141.132 151.861  1.00  0.00     0.210 HD
ENDBRANCH  20  21
ENDBRANCH   4  20
TORSDOF 6
ENDMDL
MODEL 5
REMARK VINA RESULT:    -5.929      2.296      2.427
REMARK INTER + INTRA:          -8.271
REMARK INTER:                  -7.454
REMARK INTRA:                  -0.817
REMARK UNBOUND:                -0.782
REMARK SMILES NC(=O)c1ncn(C2OC(CO)C(O)C2O)n1
REMARK SMILES IDX 8 1 15 2 13 3 10 4 9 5 7 6 6 7 5 8 4 9 17 10 2 11 3 12 1 13
REMARK SMILES IDX 16 16 14 18 11 20 12 21
REMARK H PARENT 1 14 1 15 16 17 14 19 12 22
ROOT
ATOM      1  C   UNL     1     134.377 138.097 151.214  1.00  0.00     0.270 C 
ATOM      2  C   UNL     1     133.508 139.163 150.536  1.00  0.00     0.197 C 
ATOM      3  C   UNL     1     132.855 138.373 149.420  1.00  0.00     0.179 C 
ATOM      4  C   UNL     1     134.021 137.499 148.974  1.00  0.00     0.178 C 
ATOM      5  O   UNL     1     134.781 137.184 150.152  1.00  0.00    -0.345 OA
ENDROOT
BRANCH   1   6
ATOM      6  N   UNL     1     133.798 137.302 152.285  1.00  0.00    -0.221 N 
ATOM      7  C   UNL     1     133.634 135.957 152.384  1.00  0.00     0.223 A 
ATOM      8  N   UNL     1     133.134 135.651 153.557  1.00  0.00    -0.211 NA
ATOM      9  C   UNL     1     132.974 136.871 154.177  1.00  0.00     0.239 A 
ATOM     10  N   UNL     1     133.366 137.917 153.416  1.00  0.00    -0.143 NA
BRANCH   9  11
ATOM     11  C   UNL     1     132.424 137.040 155.536  1.00  0.00     0.288 C 
ATOM     12  O   UNL     1     131.250 137.288 155.798  1.00  0.00    -0.266 OA
ATOM     13  N   UNL     1     133.350 136.905 156.541  1.00  0.00    -0.363 N 
ATOM     14  H   UNL     1     133.068 137.077 157.493  1.00  0.00     0.160 HD
ATOM     15  H   UNL     1     134.322 136.762 156.295  1.00  0.00     0.160 HD
ENDBRANCH   9  11
ENDBRANCH   1   6
BRANCH   2  16
ATOM     16  O   UNL     1     132.571 139.841 151.356  1.00  0.00    -0.386 OA
ATOM     17  H   UNL     1     132.435 139.271 152.140  1.00  0.00     0.211 HD
ENDBRANCH   2  16
BRANCH   3  18
ATOM     18  O   UNL     1     132.364 139.231 148.400  1.00  0.00    -0.387 OA
ATOM     19  H   UNL     1     131.855 139.932 148.861  1.00  0.00     0.211 HD
ENDBRANCH   3  18
BRANCH   4  20
ATOM     20  C   UNL     1     133.558 136.234 148.260  1.00  0.00     0.191 C 
BRANCH  20  21
ATOM     21  O   UNL     1     132.133 136.180 148.246  1.00  0.00    -0.394 OA
ATOM     22  H   UNL     1     131.836 136.840 147.592  1.00  0.00     0.210 HD
ENDBRANCH  20  21
ENDBRANCH   4  20
TORSDOF 6
ENDMDL
MODEL 6
REMARK VINA RESULT:    -5.917      2.018      3.210
REMARK INTER + INTRA:          -8.256
REMARK INTER:                  -7.439
REMARK INTRA:                  -0.817
REMARK UNBOUND:                -0.782
REMARK SMILES NC(=O)c1ncn(C2OC(CO)C(O)C2O)n1
REMARK SMILES IDX 8 1 15 2 13 3 10 4 9 5 7 6 6 7 5 8 4 9 17 10 2 11 3 12 1 13
REMARK SMILES IDX 16 16 14 18 11 20 12 21
REMARK H PARENT 1 14 1 15 16 17 14 19 12 22
ROOT
ATOM      1  C   UNL     1     132.778 137.563 151.971  1.00  0.00     0.270 C 
ATOM      2  C   UNL     1     133.089 136.063 152.042  1.00  0.00     0.197 C 
ATOM      3  C   UNL     1     134.142 135.910 150.963  1.00  0.00     0.179 C 
ATOM      4  C   UNL     1     133.585 136.840 149.892  1.00  0.00     0.178 C 
ATOM      5  O   UNL     1     132.964 137.940 150.576  1.00  0.00    -0.345 OA
ENDROOT
BRANCH   1   6
ATOM      6  N   UNL     1     133.564 138.478 152.785  1.00  0.00    -0.221 N 
ATOM      7  C   UNL     1     134.308 139.553 152.418  1.00  0.00     0.223 A 
ATOM      8  N   UNL     1     134.795 140.146 153.481  1.00  0.00    -0.211 NA
ATOM      9  C   UNL     1     134.337 139.376 154.528  1.00  0.00     0.239 A 
ATOM     10  N   UNL     1     133.579 138.329 154.135  1.00  0.00    -0.143 NA
BRANCH   9  11
ATOM     11  C   UNL     1     134.639 139.648 155.947  1.00  0.00     0.288 C 
ATOM     12  O   UNL     1     134.404 138.884 156.879  1.00  0.00    -0.266 OA
ATOM     13  N   UNL     1     135.221 140.870 156.177  1.00  0.00    -0.363 N 
ATOM     14  H   UNL     1     135.393 141.160 157.126  1.00  0.00     0.160 HD
ATOM     15  H   UNL     1     135.349 141.506 155.398  1.00  0.00     0.160 HD
ENDBRANCH   9  11
ENDBRANCH   1   6
BRANCH   2  16
ATOM     16  O   UNL     1     133.505 135.553 153.298  1.00  0.00    -0.386 OA
ATOM     17  H   UNL     1     132.856 134.860 153.536  1.00  0.00     0.211 HD
ENDBRANCH   2  16
BRANCH   3  18
ATOM     18  O   UNL     1     134.254 134.558 150.540  1.00  0.00    -0.387 OA
ATOM     19  H   UNL     1     135.214 134.394 150.421  1.00  0.00     0.211 HD
ENDBRANCH   3  18
BRANCH   4  20
ATOM     20  C   UNL     1     134.663 137.326 148.929  1.00  0.00     0.191 C 
BRANCH  20  21
ATOM     21  O   UNL     1     135.936 136.832 149.338  1.00  0.00    -0.394 OA
ATOM     22  H   UNL     1     136.535 136.940 148.575  1.00  0.00     0.210 HD
ENDBRANCH  20  21
ENDBRANCH   4  20
TORSDOF 6
ENDMDL
MODEL 7
REMARK VINA RESULT:    -5.791      2.682      6.239
REMARK INTER + INTRA:          -8.096
REMARK INTER:                  -7.292
REMARK INTRA:                  -0.804
REMARK UNBOUND:                -0.782
REMARK SMILES NC(=O)c1ncn(C2OC(CO)C(O)C2O)n1
REMARK SMILES IDX 8 1 15 2 13 3 10 4 9 5 7 6 6 7 5 8 4 9 17 10 2 11 3 12 1 13
REMARK SMILES IDX 16 16 14 18 11 20 12 21
REMARK H PARENT 1 14 1 15 16 17 14 19 12 22
ROOT
ATOM      1  C   UNL     1     133.460 139.839 155.081  1.00  0.00     0.270 C 
ATOM      2  C   UNL     1     134.500 140.269 156.123  1.00  0.00     0.197 C 
ATOM      3  C   UNL     1     134.631 139.020 156.970  1.00  0.00     0.179 C 
ATOM      4  C   UNL     1     133.178 138.567 157.031  1.00  0.00     0.178 C 
ATOM      5  O   UNL     1     132.585 138.895 155.764  1.00  0.00    -0.345 OA
ENDROOT
BRANCH   1   6
ATOM      6  N   UNL     1     133.922 139.207 153.855  1.00  0.00    -0.221 N 
ATOM      7  C   UNL     1     133.754 137.933 153.413  1.00  0.00     0.223 A 
ATOM      8  N   UNL     1     134.270 137.803 152.214  1.00  0.00    -0.211 NA
ATOM      9  C   UNL     1     134.786 139.050 151.939  1.00  0.00     0.239 A 
ATOM     10  N   UNL     1     134.597 139.943 152.936  1.00  0.00    -0.143 NA
BRANCH   9  11
ATOM     11  C   UNL     1     135.487 139.397 150.686  1.00  0.00     0.288 C 
ATOM     12  O   UNL     1     136.470 138.811 150.241  1.00  0.00    -0.266 OA
ATOM     13  N   UNL     1     134.952 140.470 150.018  1.00  0.00    -0.363 N 
ATOM     14  H   UNL     1     135.416 140.814 149.192  1.00  0.00     0.160 HD
ATOM     15  H   UNL     1     134.179 140.973 150.439  1.00  0.00     0.160 HD
ENDBRANCH   9  11
ENDBRANCH   1   6
BRANCH   2  16
ATOM     16  O   UNL     1     135.744 140.737 155.630  1.00  0.00    -0.386 OA
ATOM     17  H   UNL     1     136.314 140.867 156.415  1.00  0.00     0.211 HD
ENDBRANCH   2  16
BRANCH   3  18
ATOM     18  O   UNL     1     135.188 139.317 158.243  1.00  0.00    -0.387 OA
ATOM     19  H   UNL     1     134.461 139.717 158.767  1.00  0.00     0.211 HD
ENDBRANCH   3  18
BRANCH   4  20
ATOM     20  C   UNL     1     133.047 137.078 157.334  1.00  0.00     0.191 C 
BRANCH  20  21
ATOM     21  O   UNL     1     134.162 136.642 158.108  1.00  0.00    -0.394 OA
ATOM     22  H   UNL     1     134.527 137.436 158.542  1.00  0.00     0.210 HD
ENDBRANCH  20  21
ENDBRANCH   4  20
TORSDOF 6
ENDMDL
MODEL 8
REMARK VINA RESULT:    -5.638      3.813      5.411
REMARK INTER + INTRA:          -7.904
REMARK INTER:                  -7.313
REMARK INTRA:                  -0.590
REMARK UNBOUND:                -0.782
REMARK SMILES NC(=O)c1ncn(C2OC(CO)C(O)C2O)n1
REMARK SMILES IDX 8 1 15 2 13 3 10 4 9 5 7 6 6 7 5 8 4 9 17 10 2 11 3 12 1 13
REMARK SMILES IDX 16 16 14 18 11 20 12 21
REMARK H PARENT 1 14 1 15 16 17 14 19 12 22
ROOT
ATOM      1  C   UNL     1     132.789 136.357 153.697  1.00  0.00     0.270 C 
ATOM      2  C   UNL     1     132.523 134.974 153.090  1.00  0.00     0.197 C 
ATOM      3  C   UNL     1     131.022 135.004 152.886  1.00  0.00     0.179 C 
ATOM      4  C   UNL     1     130.579 135.720 154.156  1.00  0.00     0.178 C 
ATOM      5  O   UNL     1     131.596 136.686 154.467  1.00  0.00    -0.345 OA
ENDROOT
BRANCH   1   6
ATOM      6  N   UNL     1     133.060 137.471 152.802  1.00  0.00    -0.221 N 
ATOM      7  C   UNL     1     132.344 138.603 152.577  1.00  0.00     0.223 A 
ATOM      8  N   UNL     1     132.988 139.383 151.742  1.00  0.00    -0.211 NA
ATOM      9  C   UNL     1     134.129 138.672 151.440  1.00  0.00     0.239 A 
ATOM     10  N   UNL     1     134.204 137.479 152.071  1.00  0.00    -0.143 NA
BRANCH   9  11
ATOM     11  C   UNL     1     135.177 139.146 150.515  1.00  0.00     0.288 C 
ATOM     12  O   UNL     1     136.291 138.643 150.390  1.00  0.00    -0.266 OA
ATOM     13  N   UNL     1     134.819 140.242 149.769  1.00  0.00    -0.363 N 
ATOM     14  H   UNL     1     135.504 140.670 149.167  1.00  0.00     0.160 HD
ATOM     15  H   UNL     1     133.918 140.675 149.936  1.00  0.00     0.160 HD
ENDBRANCH   9  11
ENDBRANCH   1   6
BRANCH   2  16
ATOM     16  O   UNL     1     133.236 134.644 151.910  1.00  0.00    -0.386 OA
ATOM     17  H   UNL     1     134.003 134.109 152.198  1.00  0.00     0.211 HD
ENDBRANCH   2  16
BRANCH   3  18
ATOM     18  O   UNL     1     130.492 133.691 152.758  1.00  0.00    -0.387 OA
ATOM     19  H   UNL     1     129.518 133.799 152.710  1.00  0.00     0.211 HD
ENDBRANCH   3  18
BRANCH   4  20
ATOM     20  C   UNL     1     129.214 136.384 154.001  1.00  0.00     0.191 C 
BRANCH  20  21
ATOM     21  O   UNL     1     128.598 136.525 155.279  1.00  0.00    -0.394 OA
ATOM     22  H   UNL     1     127.732 136.947 155.124  1.00  0.00     0.210 HD
ENDBRANCH  20  21
ENDBRANCH   4  20
TORSDOF 6
ENDMDL
MODEL 9
REMARK VINA RESULT:    -5.577      2.085      3.269
REMARK INTER + INTRA:          -7.827
REMARK INTER:                  -7.197
REMARK INTRA:                  -0.629
REMARK UNBOUND:                -0.782
REMARK SMILES NC(=O)c1ncn(C2OC(CO)C(O)C2O)n1
REMARK SMILES IDX 8 1 15 2 13 3 10 4 9 5 7 6 6 7 5 8 4 9 17 10 2 11 3 12 1 13
REMARK SMILES IDX 16 16 14 18 11 20 12 21
REMARK H PARENT 1 14 1 15 16 17 14 19 12 22
ROOT
ATOM      1  C   UNL     1     133.212 138.085 150.419  1.00  0.00     0.270 C 
ATOM      2  C   UNL     1     132.921 136.644 149.985  1.00  0.00     0.197 C 
ATOM      3  C   UNL     1     134.293 136.162 149.556  1.00  0.00     0.179 C 
ATOM      4  C   UNL     1     134.821 137.407 148.853  1.00  0.00     0.178 C 
ATOM      5  O   UNL     1     134.304 138.541 149.568  1.00  0.00    -0.345 OA
ENDROOT
BRANCH   1   6
ATOM      6  N   UNL     1     133.594 138.335 151.801  1.00  0.00    -0.221 N 
ATOM      7  C   UNL     1     134.613 139.078 152.304  1.00  0.00     0.223 A 
ATOM      8  N   UNL     1     134.551 139.097 153.614  1.00  0.00    -0.211 NA
ATOM      9  C   UNL     1     133.457 138.311 153.903  1.00  0.00     0.239 A 
ATOM     10  N   UNL     1     132.844 137.815 152.806  1.00  0.00    -0.143 NA
BRANCH   9  11
ATOM     11  C   UNL     1     132.987 138.022 155.273  1.00  0.00     0.288 C 
ATOM     12  O   UNL     1     132.654 138.867 156.099  1.00  0.00    -0.266 OA
ATOM     13  N   UNL     1     132.949 136.686 155.587  1.00  0.00    -0.363 N 
ATOM     14  H   UNL     1     132.708 136.410 156.525  1.00  0.00     0.160 HD
ATOM     15  H   UNL     1     133.287 136.014 154.908  1.00  0.00     0.160 HD
ENDBRANCH   9  11
ENDBRANCH   1   6
BRANCH   2  16
ATOM     16  O   UNL     1     132.312 135.797 150.945  1.00  0.00    -0.386 OA
ATOM     17  H   UNL     1     131.859 135.093 150.437  1.00  0.00     0.211 HD
ENDBRANCH   2  16
BRANCH   3  18
ATOM     18  O   UNL     1     134.198 135.026 148.708  1.00  0.00    -0.387 OA
ATOM     19  H   UNL     1     133.439 135.201 148.110  1.00  0.00     0.211 HD
ENDBRANCH   3  18
BRANCH   4  20
ATOM     20  C   UNL     1     136.345 137.437 148.795  1.00  0.00     0.191 C 
BRANCH  20  21
ATOM     21  O   UNL     1     136.841 138.468 149.646  1.00  0.00    -0.394 OA
ATOM     22  H   UNL     1     136.699 138.164 150.562  1.00  0.00     0.210 HD
ENDBRANCH  20  21
ENDBRANCH   4  20
TORSDOF 6
ENDMDL
