MODEL 1
REMARK VINA RESULT:    -6.505      0.000      0.000
REMARK INTER + INTRA:          -9.012
REMARK INTER:                  -8.216
REMARK INTRA:                  -0.796
REMARK UNBOUND:                -0.796
REMARK SMILES NC(=O)c1ncn(C2OC(CO)C(O)C2O)n1
REMARK SMILES IDX 8 1 15 2 13 3 10 4 9 5 7 6 6 7 5 8 4 9 17 10 2 11 3 12 1 13
REMARK SMILES IDX 16 16 14 18 11 20 12 21
REMARK H PARENT 1 14 1 15 16 17 14 19 12 22
ROOT
ATOM      1  C   UNL     1     133.960 138.085 153.842  1.00  0.00     0.270 C 
ATOM      2  C   UNL     1     134.323 139.530 153.480  1.00  0.00     0.197 C 
ATOM      3  C   UNL     1     133.687 139.679 152.112  1.00  0.00     0.179 C 
ATOM      4  C   UNL     1     133.994 138.314 151.508  1.00  0.00     0.178 C 
ATOM      5  O   UNL     1     133.922 137.359 152.578  1.00  0.00    -0.345 OA
ENDROOT
BRANCH   1   6
ATOM      6  N   UNL     1     132.707 137.832 154.536  1.00  0.00    -0.221 N 
ATOM      7  C   UNL     1     131.701 136.971 154.234  1.00  0.00     0.223 A 
ATOM      8  N   UNL     1     130.783 137.007 155.171  1.00  0.00    -0.211 NA
ATOM      9  C   UNL     1     131.256 137.948 156.060  1.00  0.00     0.239 A 
ATOM     10  N   UNL     1     132.441 138.487 155.695  1.00  0.00    -0.143 NA
BRANCH   9  11
ATOM     11  C   UNL     1     130.549 138.348 157.293  1.00  0.00     0.288 C 
ATOM     12  O   UNL     1     131.015 138.283 158.427  1.00  0.00    -0.266 OA
ATOM     13  N   UNL     1     129.274 138.812 157.088  1.00  0.00    -0.363 N 
ATOM     14  H   UNL     1     128.700 139.037 157.885  1.00  0.00     0.160 HD
ATOM     15  H   UNL     1     128.892 138.797 156.149  1.00  0.00     0.160 HD
ENDBRANCH   9  11
ENDBRANCH   1   6
BRANCH   2  16
ATOM     16  O   UNL     1     133.920 140.539 154.391  1.00  0.00    -0.386 OA
ATOM     17  H   UNL     1     133.268 140.119 154.988  1.00  0.00     0.211 HD
ENDBRANCH   2  16
BRANCH   3  18
ATOM     18  O   UNL     1     134.261 140.762 151.393  1.00  0.00    -0.387 OA
ATOM     19  H   UNL     1     135.134 140.441 151.078  1.00  0.00     0.211 HD
ENDBRANCH   3  18
BRANCH   4  20
ATOM     20  C   UNL     1     133.036 137.952 150.378  1.00  0.00     0.191 C 
BRANCH  20  21
ATOM     21  O   UNL     1     132.617 139.135 149.701  1.00  0.00    -0.394 OA
ATOM     22  H   UNL     1     133.390 139.455 149.199  1.00  0.00     0.210 HD
ENDBRANCH  20  21
ENDBRANCH   4  20
TORSDOF 6
ENDMDL
MODEL 2
REMARK VINA RESULT:    -6.340      2.115      3.501
REMARK INTER + INTRA:          -8.804
REMARK INTER:                  -8.223
REMARK INTRA:                  -0.581
REMARK UNBOUND:                -0.796
REMARK SMILES NC(=O)c1ncn(C2OC(CO)C(O)C2O)n1
REMARK SMILES IDX 8 1 15 2 13 3 10 4 9 5 7 6 6 7 5 8 4 9 17 10 2 11 3 12 1 13
REMARK SMILES IDX 16 16 14 18 11 20 12 21
REMARK H PARENT 1 14 1 15 16 17 14 19 12 22
ROOT
ATOM      1  C   UNL     1     133.048 138.057 151.045  1.00  0.00     0.270 C 
ATOM      2  C   UNL     1     132.888 136.655 150.444  1.00  0.00     0.197 C 
ATOM      3  C   UNL     1     134.330 136.232 150.247  1.00  0.00     0.179 C 
ATOM      4  C   UNL     1     134.945 137.540 149.766  1.00  0.00     0.178 C 
ATOM      5  O   UNL     1     134.268 138.600 150.461  1.00  0.00    -0.345 OA
ENDROOT
BRANCH   1   6
ATOM      6  N   UNL     1     133.152 138.189 152.490  1.00  0.00    -0.221 N 
ATOM      7  C   UNL     1     134.237 138.440 153.267  1.00  0.00     0.223 A 
ATOM      8  N   UNL     1     133.873 138.553 154.522  1.00  0.00    -0.211 NA
ATOM      9  C   UNL     1     132.512 138.338 154.492  1.00  0.00     0.239 A 
ATOM     10  N   UNL     1     132.032 138.101 153.252  1.00  0.00    -0.143 NA
BRANCH   9  11
ATOM     11  C   UNL     1     131.647 138.356 155.688  1.00  0.00     0.288 C 
ATOM     12  O   UNL     1     131.741 139.153 156.618  1.00  0.00    -0.266 OA
ATOM     13  N   UNL     1     130.686 137.375 155.705  1.00  0.00    -0.363 N 
ATOM     14  H   UNL     1     130.102 137.276 156.519  1.00  0.00     0.160 HD
ATOM     15  H   UNL     1     130.669 136.694 154.955  1.00  0.00     0.160 HD
ENDBRANCH   9  11
ENDBRANCH   1   6
BRANCH   2  16
ATOM     16  O   UNL     1     132.133 135.719 151.194  1.00  0.00    -0.386 OA
ATOM     17  H   UNL     1     132.447 134.834 150.916  1.00  0.00     0.211 HD
ENDBRANCH   2  16
BRANCH   3  18
ATOM     18  O   UNL     1     134.433 135.174 149.304  1.00  0.00    -0.387 OA
ATOM     19  H   UNL     1     135.215 135.385 148.750  1.00  0.00     0.211 HD
ENDBRANCH   3  18
BRANCH   4  20
ATOM     20  C   UNL     1     136.450 137.596 150.005  1.00  0.00     0.191 C 
BRANCH  20  21
ATOM     21  O   UNL     1     136.885 138.953 150.042  1.00  0.00    -0.394 OA
ATOM     22  H   UNL     1     136.449 139.363 150.813  1.00  0.00     0.210 HD
ENDBRANCH  20  21
ENDBRANCH   4  20
TORSDOF 6
ENDMDL
MODEL 3
REMARK VINA RESULT:    -6.311      2.446      6.029
REMARK INTER + INTRA:          -8.768
REMARK INTER:                  -8.166
REMARK INTRA:                  -0.602
REMARK UNBOUND:                -0.796
REMARK SMILES NC(=O)c1ncn(C2OC(CO)C(O)C2O)n1
REMARK SMILES IDX 8 1 15 2 13 3 10 4 9 5 7 6 6 7 5 8 4 9 17 10 2 11 3 12 1 13
REMARK SMILES IDX 16 16 14 18 11 20 12 21
REMARK H PARENT 1 14 1 15 16 17 14 19 12 22
ROOT
ATOM      1  C   UNL     1     133.346 137.134 154.343  1.00  0.00     0.270 C 
ATOM      2  C   UNL     1     132.064 136.372 153.987  1.00  0.00     0.197 C 
ATOM      3  C   UNL     1     131.006 137.184 154.706  1.00  0.00     0.179 C 
ATOM      4  C   UNL     1     131.734 137.509 156.005  1.00  0.00     0.178 C 
ATOM      5  O   UNL     1     133.120 137.686 155.673  1.00  0.00    -0.345 OA
ENDROOT
BRANCH   1   6
ATOM      6  N   UNL     1     133.773 138.223 153.478  1.00  0.00    -0.221 N 
ATOM      7  C   UNL     1     133.913 139.547 153.746  1.00  0.00     0.223 A 
ATOM      8  N   UNL     1     134.398 140.169 152.698  1.00  0.00    -0.211 NA
ATOM      9  C   UNL     1     134.533 139.172 151.756  1.00  0.00     0.239 A 
ATOM     10  N   UNL     1     134.148 137.955 152.201  1.00  0.00    -0.143 NA
BRANCH   9  11
ATOM     11  C   UNL     1     135.041 139.392 150.388  1.00  0.00     0.288 C 
ATOM     12  O   UNL     1     134.392 139.870 149.461  1.00  0.00    -0.266 OA
ATOM     13  N   UNL     1     136.345 139.006 150.200  1.00  0.00    -0.363 N 
ATOM     14  H   UNL     1     136.743 139.057 149.276  1.00  0.00     0.160 HD
ATOM     15  H   UNL     1     136.838 138.559 150.965  1.00  0.00     0.160 HD
ENDBRANCH   9  11
ENDBRANCH   1   6
BRANCH   2  16
ATOM     16  O   UNL     1     131.785 136.196 152.608  1.00  0.00    -0.386 OA
ATOM     17  H   UNL     1     132.575 136.519 152.129  1.00  0.00     0.211 HD
ENDBRANCH   2  16
BRANCH   3  18
ATOM     18  O   UNL     1     129.816 136.430 154.894  1.00  0.00    -0.387 OA
ATOM     19  H   UNL     1     130.032 135.516 154.611  1.00  0.00     0.211 HD
ENDBRANCH   3  18
BRANCH   4  20
ATOM     20  C   UNL     1     131.167 138.745 156.694  1.00  0.00     0.191 C 
BRANCH  20  21
ATOM     21  O   UNL     1     130.693 138.401 157.993  1.00  0.00    -0.394 OA
ATOM     22  H   UNL     1     131.300 138.821 158.631  1.00  0.00     0.210 HD
ENDBRANCH  20  21
ENDBRANCH   4  20
TORSDOF 6
ENDMDL
MODEL 4
REMARK VINA RESULT:    -6.289      1.247      1.415
REMARK INTER + INTRA:          -8.740
REMARK INTER:                  -8.274
REMARK INTRA:                  -0.466
REMARK UNBOUND:                -0.796
REMARK SMILES NC(=O)c1ncn(C2OC(CO)C(O)C2O)n1
REMARK SMILES IDX 8 1 15 2 13 3 10 4 9 5 7 6 6 7 5 8 4 9 17 10 2 11 3 12 1 13
REMARK SMILES IDX 16 16 14 18 11 20 12 21
REMARK H PARENT 1 14 1 15 16 17 14 19 12 22
ROOT
ATOM      1  C   UNL     1     134.573 138.025 152.484  1.00  0.00     0.270 C 
ATOM      2  C   UNL     1     134.789 139.541 152.397  1.00  0.00     0.197 C 
ATOM      3  C   UNL     1     133.807 139.935 151.312  1.00  0.00     0.179 C 
ATOM      4  C   UNL     1     133.976 138.772 150.342  1.00  0.00     0.178 C 
ATOM      5  O   UNL     1     134.217 137.599 151.136  1.00  0.00    -0.345 OA
ENDROOT
BRANCH   1   6
ATOM      6  N   UNL     1     133.558 137.516 153.392  1.00  0.00    -0.221 N 
ATOM      7  C   UNL     1     133.120 136.245 153.588  1.00  0.00     0.223 A 
ATOM      8  N   UNL     1     132.241 136.218 154.560  1.00  0.00    -0.211 NA
ATOM      9  C   UNL     1     132.135 137.536 154.947  1.00  0.00     0.239 A 
ATOM     10  N   UNL     1     132.929 138.370 154.240  1.00  0.00    -0.143 NA
BRANCH   9  11
ATOM     11  C   UNL     1     131.242 138.012 156.022  1.00  0.00     0.288 C 
ATOM     12  O   UNL     1     131.574 138.761 156.937  1.00  0.00    -0.266 OA
ATOM     13  N   UNL     1     129.956 137.540 155.939  1.00  0.00    -0.363 N 
ATOM     14  H   UNL     1     129.304 137.762 156.674  1.00  0.00     0.160 HD
ATOM     15  H   UNL     1     129.724 136.876 155.209  1.00  0.00     0.160 HD
ENDBRANCH   9  11
ENDBRANCH   1   6
BRANCH   2  16
ATOM     16  O   UNL     1     134.619 140.282 153.594  1.00  0.00    -0.386 OA
ATOM     17  H   UNL     1     134.103 141.077 153.349  1.00  0.00     0.211 HD
ENDBRANCH   2  16
BRANCH   3  18
ATOM     18  O   UNL     1     134.141 141.197 150.750  1.00  0.00    -0.387 OA
ATOM     19  H   UNL     1     134.528 141.004 149.869  1.00  0.00     0.211 HD
ENDBRANCH   3  18
BRANCH   4  20
ATOM     20  C   UNL     1     132.760 138.588 149.440  1.00  0.00     0.191 C 
BRANCH  20  21
ATOM     21  O   UNL     1     132.622 139.716 148.579  1.00  0.00    -0.394 OA
ATOM     22  H   UNL     1     133.509 139.902 148.219  1.00  0.00     0.210 HD
ENDBRANCH  20  21
ENDBRANCH   4  20
TORSDOF 6
ENDMDL
MODEL 5
REMARK VINA RESULT:    -6.272      1.779      2.808
REMARK INTER + INTRA:          -8.718
REMARK INTER:                  -7.983
REMARK INTRA:                  -0.735
REMARK UNBOUND:                -0.796
REMARK SMILES NC(=O)c1ncn(C2OC(CO)C(O)C2O)n1
REMARK SMILES IDX 8 1 15 2 13 3 10 4 9 5 7 6 6 7 5 8 4 9 17 10 2 11 3 12 1 13
REMARK SMILES IDX 16 16 14 18 11 20 12 21
REMARK H PARENT 1 14 1 15 16 17 14 19 12 22
ROOT
ATOM      1  C   UNL     1     131.862 137.032 153.066  1.00  0.00     0.270 C 
ATOM      2  C   UNL     1     132.739 135.776 152.998  1.00  0.00     0.197 C 
ATOM      3  C   UNL     1     134.081 136.351 152.593  1.00  0.00     0.179 C 
ATOM      4  C   UNL     1     133.642 137.407 151.586  1.00  0.00     0.178 C 
ATOM      5  O   UNL     1     132.393 137.938 152.055  1.00  0.00    -0.345 OA
ENDROOT
BRANCH   1   6
ATOM      6  N   UNL     1     131.786 137.763 154.321  1.00  0.00    -0.221 N 
ATOM      7  C   UNL     1     132.415 138.904 154.706  1.00  0.00     0.223 A 
ATOM      8  N   UNL     1     132.003 139.263 155.898  1.00  0.00    -0.211 NA
ATOM      9  C   UNL     1     131.104 138.279 156.247  1.00  0.00     0.239 A 
ATOM     10  N   UNL     1     130.950 137.328 155.299  1.00  0.00    -0.143 NA
BRANCH   9  11
ATOM     11  C   UNL     1     130.374 138.245 157.530  1.00  0.00     0.288 C 
ATOM     12  O   UNL     1     130.897 138.223 158.641  1.00  0.00    -0.266 OA
ATOM     13  N   UNL     1     129.007 138.231 157.402  1.00  0.00    -0.363 N 
ATOM     14  H   UNL     1     128.439 138.136 158.228  1.00  0.00     0.160 HD
ATOM     15  H   UNL     1     128.603 138.187 156.474  1.00  0.00     0.160 HD
ENDBRANCH   9  11
ENDBRANCH   1   6
BRANCH   2  16
ATOM     16  O   UNL     1     132.809 134.979 154.169  1.00  0.00    -0.386 OA
ATOM     17  H   UNL     1     132.059 135.260 154.732  1.00  0.00     0.211 HD
ENDBRANCH   2  16
BRANCH   3  18
ATOM     18  O   UNL     1     134.924 135.351 152.038  1.00  0.00    -0.387 OA
ATOM     19  H   UNL     1     134.347 134.575 151.875  1.00  0.00     0.211 HD
ENDBRANCH   3  18
BRANCH   4  20
ATOM     20  C   UNL     1     134.681 138.510 151.411  1.00  0.00     0.191 C 
BRANCH  20  21
ATOM     21  O   UNL     1     135.799 138.010 150.681  1.00  0.00    -0.394 OA
ATOM     22  H   UNL     1     135.453 137.690 149.827  1.00  0.00     0.210 HD
ENDBRANCH  20  21
ENDBRANCH   4  20
TORSDOF 6
ENDMDL
MODEL 6
REMARK VINA RESULT:    -6.197      2.541      3.450
REMARK INTER + INTRA:          -8.624
REMARK INTER:                  -8.083
REMARK INTRA:                  -0.540
REMARK UNBOUND:                -0.796
REMARK SMILES NC(=O)c1ncn(C2OC(CO)C(O)C2O)n1
REMARK SMILES IDX 8 1 15 2 13 3 10 4 9 5 7 6 6 7 5 8 4 9 17 10 2 11 3 12 1 13
REMARK SMILES IDX 16 16 14 18 11 20 12 21
REMARK H PARENT 1 14 1 15 16 17 14 19 12 22
ROOT
ATOM      1  C   UNL     1     135.123 139.062 151.009  1.00  0.00     0.270 C 
ATOM      2  C   UNL     1     134.435 140.145 150.170  1.00  0.00     0.197 C 
ATOM      3  C   UNL     1     133.385 139.346 149.425  1.00  0.00     0.179 C 
ATOM      4  C   UNL     1     134.170 138.080 149.105  1.00  0.00     0.178 C 
ATOM      5  O   UNL     1     135.049 137.842 150.215  1.00  0.00    -0.345 OA
ENDROOT
BRANCH   1   6
ATOM      6  N   UNL     1     134.594 138.762 152.331  1.00  0.00    -0.221 N 
ATOM      7  C   UNL     1     134.629 139.497 153.472  1.00  0.00     0.223 A 
ATOM      8  N   UNL     1     133.964 138.885 154.422  1.00  0.00    -0.211 NA
ATOM      9  C   UNL     1     133.530 137.722 153.823  1.00  0.00     0.239 A 
ATOM     10  N   UNL     1     133.908 137.607 152.531  1.00  0.00    -0.143 NA
BRANCH   9  11
ATOM     11  C   UNL     1     132.733 136.686 154.511  1.00  0.00     0.288 C 
ATOM     12  O   UNL     1     132.096 136.857 155.547  1.00  0.00    -0.266 OA
ATOM     13  N   UNL     1     132.753 135.458 153.898  1.00  0.00    -0.363 N 
ATOM     14  H   UNL     1     132.293 134.681 154.343  1.00  0.00     0.160 HD
ATOM     15  H   UNL     1     133.336 135.329 153.079  1.00  0.00     0.160 HD
ENDBRANCH   9  11
ENDBRANCH   1   6
BRANCH   2  16
ATOM     16  O   UNL     1     133.894 141.252 150.872  1.00  0.00    -0.386 OA
ATOM     17  H   UNL     1     134.655 141.818 151.113  1.00  0.00     0.211 HD
ENDBRANCH   2  16
BRANCH   3  18
ATOM     18  O   UNL     1     132.931 140.041 148.272  1.00  0.00    -0.387 OA
ATOM     19  H   UNL     1     132.500 139.366 147.705  1.00  0.00     0.211 HD
ENDBRANCH   3  18
BRANCH   4  20
ATOM     20  C   UNL     1     133.260 136.882 148.854  1.00  0.00     0.191 C 
BRANCH  20  21
ATOM     21  O   UNL     1     133.106 136.131 150.055  1.00  0.00    -0.394 OA
ATOM     22  H   UNL     1     132.213 136.328 150.395  1.00  0.00     0.210 HD
ENDBRANCH  20  21
ENDBRANCH   4  20
TORSDOF 6
ENDMDL
MODEL 7
REMARK VINA RESULT:    -6.080      3.396      6.165
REMARK INTER + INTRA:          -8.476
REMARK INTER:                  -7.732
REMARK INTRA:                  -0.743
REMARK UNBOUND:                -0.796
REMARK SMILES NC(=O)c1ncn(C2OC(CO)C(O)C2O)n1
REMARK SMILES IDX 8 1 15 2 13 3 10 4 9 5 7 6 6 7 5 8 4 9 17 10 2 11 3 12 1 13
REMARK SMILES IDX 16 16 14 18 11 20 12 21
REMARK H PARENT 1 14 1 15 16 17 14 19 12 22
ROOT
ATOM      1  C   UNL     1     132.941 139.091 151.258  1.00  0.00     0.270 C 
ATOM      2  C   UNL     1     134.119 139.850 151.879  1.00  0.00     0.197 C 
ATOM      3  C   UNL     1     134.150 139.285 153.285  1.00  0.00     0.179 C 
ATOM      4  C   UNL     1     132.659 139.191 153.584  1.00  0.00     0.178 C 
ATOM      5  O   UNL     1     132.007 138.849 152.351  1.00  0.00    -0.345 OA
ENDROOT
BRANCH   1   6
ATOM      6  N   UNL     1     133.199 137.816 150.605  1.00  0.00    -0.221 N 
ATOM      7  C   UNL     1     133.076 136.551 151.083  1.00  0.00     0.223 A 
ATOM      8  N   UNL     1     133.340 135.685 150.134  1.00  0.00    -0.211 NA
ATOM      9  C   UNL     1     133.654 136.472 149.047  1.00  0.00     0.239 A 
ATOM     10  N   UNL     1     133.586 137.797 149.304  1.00  0.00    -0.143 NA
BRANCH   9  11
ATOM     11  C   UNL     1     134.036 135.940 147.724  1.00  0.00     0.288 C 
ATOM     12  O   UNL     1     135.152 136.034 147.220  1.00  0.00    -0.266 OA
ATOM     13  N   UNL     1     133.019 135.306 147.055  1.00  0.00    -0.363 N 
ATOM     14  H   UNL     1     133.180 134.978 146.116  1.00  0.00     0.160 HD
ATOM     15  H   UNL     1     132.093 135.296 147.467  1.00  0.00     0.160 HD
ENDBRANCH   9  11
ENDBRANCH   1   6
BRANCH   2  16
ATOM     16  O   UNL     1     135.368 139.750 151.215  1.00  0.00    -0.386 OA
ATOM     17  H   UNL     1     136.051 139.905 151.898  1.00  0.00     0.211 HD
ENDBRANCH   2  16
BRANCH   3  18
ATOM     18  O   UNL     1     134.855 140.145 154.171  1.00  0.00    -0.387 OA
ATOM     19  H   UNL     1     135.806 139.952 154.031  1.00  0.00     0.211 HD
ENDBRANCH   3  18
BRANCH   4  20
ATOM     20  C   UNL     1     132.350 138.171 154.675  1.00  0.00     0.191 C 
BRANCH  20  21
ATOM     21  O   UNL     1     133.551 137.806 155.350  1.00  0.00    -0.394 OA
ATOM     22  H   UNL     1     134.288 138.087 154.777  1.00  0.00     0.210 HD
ENDBRANCH  20  21
ENDBRANCH   4  20
TORSDOF 6
ENDMDL
MODEL 8
REMARK VINA RESULT:    -6.028      1.947      3.084
REMARK INTER + INTRA:          -8.410
REMARK INTER:                  -7.851
REMARK INTRA:                  -0.559
REMARK UNBOUND:                -0.796
REMARK SMILES NC(=O)c1ncn(C2OC(CO)C(O)C2O)n1
REMARK SMILES IDX 8 1 15 2 13 3 10 4 9 5 7 6 6 7 5 8 4 9 17 10 2 11 3 12 1 13
REMARK SMILES IDX 16 16 14 18 11 20 12 21
REMARK H PARENT 1 14 1 15 16 17 14 19 12 22
ROOT
ATOM      1  C   UNL     1     133.708 136.959 150.878  1.00  0.00     0.270 C 
ATOM      2  C   UNL     1     135.213 136.931 150.583  1.00  0.00     0.197 C 
ATOM      3  C   UNL     1     135.589 138.392 150.729  1.00  0.00     0.179 C 
ATOM      4  C   UNL     1     134.383 139.059 150.080  1.00  0.00     0.178 C 
ATOM      5  O   UNL     1     133.238 138.254 150.400  1.00  0.00    -0.345 OA
ENDROOT
BRANCH   1   6
ATOM      6  N   UNL     1     133.263 136.807 152.254  1.00  0.00    -0.221 N 
ATOM      7  C   UNL     1     133.210 135.697 153.036  1.00  0.00     0.223 A 
ATOM      8  N   UNL     1     132.814 136.019 154.244  1.00  0.00    -0.211 NA
ATOM      9  C   UNL     1     132.601 137.378 154.171  1.00  0.00     0.239 A 
ATOM     10  N   UNL     1     132.861 137.900 152.952  1.00  0.00    -0.143 NA
BRANCH   9  11
ATOM     11  C   UNL     1     132.130 138.202 155.302  1.00  0.00     0.288 C 
ATOM     12  O   UNL     1     132.436 139.375 155.498  1.00  0.00    -0.266 OA
ATOM     13  N   UNL     1     131.292 137.545 156.169  1.00  0.00    -0.363 N 
ATOM     14  H   UNL     1     130.984 138.017 157.004  1.00  0.00     0.160 HD
ATOM     15  H   UNL     1     131.104 136.561 156.017  1.00  0.00     0.160 HD
ENDBRANCH   9  11
ENDBRANCH   1   6
BRANCH   2  16
ATOM     16  O   UNL     1     136.006 136.072 151.386  1.00  0.00    -0.386 OA
ATOM     17  H   UNL     1     136.875 136.514 151.477  1.00  0.00     0.211 HD
ENDBRANCH   2  16
BRANCH   3  18
ATOM     18  O   UNL     1     136.817 138.676 150.074  1.00  0.00    -0.387 OA
ATOM     19  H   UNL     1     137.026 137.880 149.539  1.00  0.00     0.211 HD
ENDBRANCH   3  18
BRANCH   4  20
ATOM     20  C   UNL     1     134.195 140.498 150.548  1.00  0.00     0.191 C 
BRANCH  20  21
ATOM     21  O   UNL     1     134.145 140.541 151.972  1.00  0.00    -0.394 OA
ATOM     22  H   UNL     1     134.960 140.111 152.292  1.00  0.00     0.210 HD
ENDBRANCH  20  21
ENDBRANCH   4  20
TORSDOF 6
ENDMDL
MODEL 9
REMARK VINA RESULT:    -6.018      1.988      2.854
REMARK INTER + INTRA:          -8.397
REMARK INTER:                  -7.603
REMARK INTRA:                  -0.794
REMARK UNBOUND:                -0.796
REMARK SMILES NC(=O)c1ncn(C2OC(CO)C(O)C2O)n1
REMARK SMILES IDX 8 1 15 2 13 3 10 4 9 5 7 6 6 7 5 8 4 9 17 10 2 11 3 12 1 13
REMARK SMILES IDX 16 16 14 18 11 20 12 21
REMARK H PARENT 1 14 1 15 16 17 14 19 12 22
ROOT
ATOM      1  C   UNL     1     134.408 137.945 151.353  1.00  0.00     0.270 C 
ATOM      2  C   UNL     1     133.675 139.013 150.532  1.00  0.00     0.197 C 
ATOM      3  C   UNL     1     133.072 138.188 149.412  1.00  0.00     0.179 C 
ATOM      4  C   UNL     1     134.211 137.217 149.132  1.00  0.00     0.178 C 
ATOM      5  O   UNL     1     134.841 136.937 150.392  1.00  0.00    -0.345 OA
ENDROOT
BRANCH   1   6
ATOM      6  N   UNL     1     133.684 137.262 152.414  1.00  0.00    -0.221 N 
ATOM      7  C   UNL     1     133.591 135.937 152.694  1.00  0.00     0.223 A 
ATOM      8  N   UNL     1     132.894 135.758 153.791  1.00  0.00    -0.211 NA
ATOM      9  C   UNL     1     132.540 137.034 154.169  1.00  0.00     0.239 A 
ATOM     10  N   UNL     1     133.004 137.992 153.336  1.00  0.00    -0.143 NA
BRANCH   9  11
ATOM     11  C   UNL     1     131.728 137.347 155.362  1.00  0.00     0.288 C 
ATOM     12  O   UNL     1     132.144 137.903 156.375  1.00  0.00    -0.266 OA
ATOM     13  N   UNL     1     130.416 136.954 155.271  1.00  0.00    -0.363 N 
ATOM     14  H   UNL     1     129.814 137.067 156.071  1.00  0.00     0.160 HD
ATOM     15  H   UNL     1     130.114 136.443 154.450  1.00  0.00     0.160 HD
ENDBRANCH   9  11
ENDBRANCH   1   6
BRANCH   2  16
ATOM     16  O   UNL     1     132.717 139.802 151.217  1.00  0.00    -0.386 OA
ATOM     17  H   UNL     1     132.990 139.804 152.157  1.00  0.00     0.211 HD
ENDBRANCH   2  16
BRANCH   3  18
ATOM     18  O   UNL     1     132.732 139.003 148.299  1.00  0.00    -0.387 OA
ATOM     19  H   UNL     1     132.605 139.907 148.657  1.00  0.00     0.211 HD
ENDBRANCH   3  18
BRANCH   4  20
ATOM     20  C   UNL     1     133.729 135.936 148.459  1.00  0.00     0.191 C 
BRANCH  20  21
ATOM     21  O   UNL     1     132.350 136.059 148.118  1.00  0.00    -0.394 OA
ATOM     22  H   UNL     1     132.240 136.943 147.720  1.00  0.00     0.210 HD
ENDBRANCH  20  21
ENDBRANCH   4  20
TORSDOF 6
ENDMDL
