ROOT
ATOM      1  C   UNL     1     134.464 137.164 151.735  1.00  0.00     0.079 C 
ATOM      2  C   UNL     1     134.899 135.715 151.763  1.00  0.00     0.018 C 
ATOM      3  C   UNL     1     132.983 137.352 151.906  1.00  0.00     0.001 C 
ATOM      4  C   UNL     1     132.620 138.709 152.368  1.00  0.00     0.005 C 
ATOM      5  C   UNL     1     132.393 136.196 152.674  1.00  0.00     0.005 C 
ATOM      6  C   UNL     1     132.492 138.893 153.868  1.00  0.00     0.009 C 
ATOM      7  C   UNL     1     132.422 136.477 154.195  1.00  0.00     0.009 C 
ATOM      8  C   UNL     1     131.713 137.748 154.408  1.00  0.00     0.020 C 
ATOM      9  C   UNL     1     130.896 137.940 155.605  1.00  0.00    -0.034 A 
ATOM     10  C   UNL     1     131.409 138.275 156.864  1.00  0.00     0.025 A 
ATOM     11  C   UNL     1     129.498 137.825 155.582  1.00  0.00     0.007 A 
ATOM     12  C   UNL     1     130.616 138.472 157.970  1.00  0.00     0.112 A 
ATOM     13  C   UNL     1     128.815 137.492 154.434  1.00  0.00     0.049 A 
ATOM     14  C   UNL     1     128.731 138.031 156.714  1.00  0.00     0.071 A 
ATOM     15  N   UNL     1     129.277 138.352 157.901  1.00  0.00    -0.256 NA
ATOM     16  C   UNL     1     127.462 137.362 154.364  1.00  0.00     0.123 A 
ATOM     17  C   UNL     1     127.353 137.908 156.680  1.00  0.00     0.032 A 
ATOM     18  C   UNL     1     126.707 137.571 155.501  1.00  0.00     0.041 A 
ATOM     19  F   UNL     1     126.848 137.033 153.204  1.00  0.00    -0.207 F 
ATOM     20  C   UNL     1     135.007 137.769 150.503  1.00  0.00     0.227 C 
ATOM     21  O   UNL     1     135.639 138.850 150.574  1.00  0.00    -0.274 OA
ATOM     22  N   UNL     1     134.806 137.122 149.259  1.00  0.00    -0.326 N 
ATOM     23  H   UNL     1     134.264 136.223 149.303  1.00  0.00     0.169 HD
ATOM     24  C   UNL     1     135.249 137.555 148.011  1.00  0.00     0.041 A 
ATOM     25  C   UNL     1     136.425 137.225 147.393  1.00  0.00     0.027 A 
ATOM     26  C   UNL     1     134.422 138.426 147.284  1.00  0.00     0.027 A 
ATOM     27  C   UNL     1     136.781 137.716 146.132  1.00  0.00     0.022 A 
ATOM     28  C   UNL     1     134.761 138.909 146.053  1.00  0.00     0.022 A 
ATOM     29  C   UNL     1     135.951 138.564 145.450  1.00  0.00     0.041 A 
ATOM     30  Cl  UNL     1     136.336 139.204 143.884  1.00  0.00    -0.084 Cl
ENDROOT
TORSDOF 0
