MODEL 1
REMARK VINA RESULT:    -8.833      0.000      0.000
REMARK INTER + INTRA:          -8.833
REMARK INTER:                  -8.833
REMARK INTRA:                   0.000
REMARK UNBOUND:                 0.000
ROOT
ATOM      1  C   UNL     1     134.467 137.180 151.728  1.00  0.00     0.079 C 
ATOM      2  C   UNL     1     134.910 135.734 151.758  1.00  0.00     0.018 C 
ATOM      3  C   UNL     1     132.985 137.360 151.901  1.00  0.00     0.001 C 
ATOM      4  C   UNL     1     132.616 138.716 152.361  1.00  0.00     0.005 C 
ATOM      5  C   UNL     1     132.403 136.202 152.671  1.00  0.00     0.005 C 
ATOM      6  C   UNL     1     132.488 138.902 153.861  1.00  0.00     0.009 C 
ATOM      7  C   UNL     1     132.432 136.486 154.192  1.00  0.00     0.009 C 
ATOM      8  C   UNL     1     131.717 137.753 154.404  1.00  0.00     0.020 C 
ATOM      9  C   UNL     1     130.900 137.942 155.601  1.00  0.00    -0.034 A 
ATOM     10  C   UNL     1     131.413 138.282 156.859  1.00  0.00     0.025 A 
ATOM     11  C   UNL     1     129.503 137.820 155.580  1.00  0.00     0.007 A 
ATOM     12  C   UNL     1     130.620 138.477 157.966  1.00  0.00     0.112 A 
ATOM     13  C   UNL     1     128.820 137.481 154.434  1.00  0.00     0.049 A 
ATOM     14  C   UNL     1     128.736 138.023 156.713  1.00  0.00     0.071 A 
ATOM     15  N   UNL     1     129.282 138.349 157.899  1.00  0.00    -0.256 NA
ATOM     16  C   UNL     1     127.468 137.344 154.366  1.00  0.00     0.123 A 
ATOM     17  C   UNL     1     127.359 137.893 156.681  1.00  0.00     0.032 A 
ATOM     18  C   UNL     1     126.713 137.550 155.503  1.00  0.00     0.041 A 
ATOM     19  F   UNL     1     126.854 137.009 153.207  1.00  0.00    -0.207 F 
ATOM     20  C   UNL     1     135.005 137.786 150.494  1.00  0.00     0.227 C 
ATOM     21  O   UNL     1     135.631 138.871 150.563  1.00  0.00    -0.274 OA
ATOM     22  N   UNL     1     134.806 137.136 149.252  1.00  0.00    -0.326 N 
ATOM     23  H   UNL     1     134.269 136.234 149.298  1.00  0.00     0.169 HD
ATOM     24  C   UNL     1     135.245 137.570 148.002  1.00  0.00     0.041 A 
ATOM     25  C   UNL     1     136.422 137.245 147.383  1.00  0.00     0.027 A 
ATOM     26  C   UNL     1     134.412 138.435 147.275  1.00  0.00     0.027 A 
ATOM     27  C   UNL     1     136.774 137.736 146.121  1.00  0.00     0.022 A 
ATOM     28  C   UNL     1     134.747 138.918 146.043  1.00  0.00     0.022 A 
ATOM     29  C   UNL     1     135.938 138.578 145.439  1.00  0.00     0.041 A 
ATOM     30  Cl  UNL     1     136.318 139.218 143.871  1.00  0.00    -0.084 Cl
ENDROOT
TORSDOF 0
ENDMDL
