MODEL 1
REMARK VINA RESULT:    -8.558      0.000      0.000
REMARK INTER + INTRA:          -8.558
REMARK INTER:                  -8.558
REMARK INTRA:                   0.000
REMARK UNBOUND:                 0.000
ROOT
ATOM      1  C   UNL     1     134.772 136.801 151.281  1.00  0.00     0.079 C 
ATOM      2  C   UNL     1     134.775 135.302 151.073  1.00  0.00     0.018 C 
ATOM      3  C   UNL     1     133.444 137.344 151.727  1.00  0.00     0.001 C 
ATOM      4  C   UNL     1     133.549 138.661 152.392  1.00  0.00     0.005 C 
ATOM      5  C   UNL     1     132.659 136.281 152.453  1.00  0.00     0.005 C 
ATOM      6  C   UNL     1     133.684 138.638 153.903  1.00  0.00     0.009 C 
ATOM      7  C   UNL     1     132.974 136.305 153.968  1.00  0.00     0.009 C 
ATOM      8  C   UNL     1     132.693 137.670 154.440  1.00  0.00     0.020 C 
ATOM      9  C   UNL     1     132.136 137.883 155.775  1.00  0.00    -0.034 A 
ATOM     10  C   UNL     1     132.889 137.872 156.954  1.00  0.00     0.025 A 
ATOM     11  C   UNL     1     130.773 138.146 155.983  1.00  0.00     0.007 A 
ATOM     12  C   UNL     1     132.344 138.098 158.196  1.00  0.00     0.112 A 
ATOM     13  C   UNL     1     129.874 138.186 154.941  1.00  0.00     0.049 A 
ATOM     14  C   UNL     1     130.259 138.369 157.246  1.00  0.00     0.071 A 
ATOM     15  N   UNL     1     131.030 138.347 158.349  1.00  0.00    -0.256 NA
ATOM     16  C   UNL     1     128.543 138.430 155.094  1.00  0.00     0.123 A 
ATOM     17  C   UNL     1     128.912 138.621 157.439  1.00  0.00     0.032 A 
ATOM     18  C   UNL     1     128.042 138.652 156.361  1.00  0.00     0.041 A 
ATOM     19  F   UNL     1     127.709 138.458 154.029  1.00  0.00    -0.207 F 
ATOM     20  C   UNL     1     135.291 137.424 150.048  1.00  0.00     0.227 C 
ATOM     21  O   UNL     1     136.209 138.276 150.128  1.00  0.00    -0.274 OA
ATOM     22  N   UNL     1     134.747 137.054 148.794  1.00  0.00    -0.326 N 
ATOM     23  H   UNL     1     133.982 136.334 148.832  1.00  0.00     0.169 HD
ATOM     24  C   UNL     1     135.120 137.542 147.544  1.00  0.00     0.041 A 
ATOM     25  C   UNL     1     136.057 137.013 146.698  1.00  0.00     0.027 A 
ATOM     26  C   UNL     1     134.484 138.702 147.073  1.00  0.00     0.027 A 
ATOM     27  C   UNL     1     136.363 137.582 145.457  1.00  0.00     0.022 A 
ATOM     28  C   UNL     1     134.776 139.263 145.863  1.00  0.00     0.022 A 
ATOM     29  C   UNL     1     135.724 138.713 145.028  1.00  0.00     0.041 A 
ATOM     30  Cl  UNL     1     136.058 139.463 143.499  1.00  0.00    -0.084 Cl
ENDROOT
TORSDOF 0
ENDMDL
