MODEL 1
REMARK VINA RESULT:    -7.149      0.000      0.000
REMARK INTER + INTRA:         -10.196
REMARK INTER:                  -8.821
REMARK INTRA:                  -1.375
REMARK UNBOUND:                -1.375
REMARK SMILES C[C@@H](C(=O)Nc1ccc(Cl)cc1)[C@H]1CC[C@@H](c2ccnc3ccc(F)cc32)CC1
REMARK SMILES IDX 2 1 1 2 13 3 14 4 29 5 15 6 28 7 16 8 17 9 18 10 27 11 19 12
REMARK SMILES IDX 26 13 21 14 20 15 24 16 22 17 23 18 25 19 3 20 4 21 5 22
REMARK SMILES IDX 6 24 7 25 12 26 8 27 11 28 9 29 10 30
REMARK H PARENT 5 23
ROOT
ATOM      1  C   UNL     1     134.476 137.163 151.734  1.00  0.00     0.079 C 
ATOM      2  C   UNL     1     134.922 135.717 151.764  1.00  0.00     0.018 C 
ENDROOT
BRANCH   1   3
ATOM      3  C   UNL     1     132.995 137.342 151.904  1.00  0.00     0.001 C 
ATOM      4  C   UNL     1     132.622 138.699 152.358  1.00  0.00     0.005 C 
ATOM      5  C   UNL     1     132.413 136.186 152.680  1.00  0.00     0.005 C 
ATOM      6  C   UNL     1     132.493 138.891 153.857  1.00  0.00     0.009 C 
ATOM      7  C   UNL     1     132.441 136.477 154.199  1.00  0.00     0.009 C 
ATOM      8  C   UNL     1     131.722 137.744 154.404  1.00  0.00     0.020 C 
BRANCH   8   9
ATOM      9  C   UNL     1     130.905 137.938 155.601  1.00  0.00    -0.034 A 
ATOM     10  C   UNL     1     131.416 138.281 156.858  1.00  0.00     0.025 A 
ATOM     11  C   UNL     1     129.508 137.817 155.578  1.00  0.00     0.007 A 
ATOM     12  C   UNL     1     130.622 138.479 157.963  1.00  0.00     0.112 A 
ATOM     13  C   UNL     1     128.826 137.477 154.431  1.00  0.00     0.049 A 
ATOM     14  C   UNL     1     128.740 138.025 156.709  1.00  0.00     0.071 A 
ATOM     15  N   UNL     1     129.285 138.353 157.894  1.00  0.00    -0.256 NA
ATOM     16  C   UNL     1     127.473 137.341 154.362  1.00  0.00     0.123 A 
ATOM     17  C   UNL     1     127.363 137.896 156.676  1.00  0.00     0.032 A 
ATOM     18  C   UNL     1     126.717 137.551 155.498  1.00  0.00     0.041 A 
ATOM     19  F   UNL     1     126.861 137.005 153.203  1.00  0.00    -0.207 F 
ENDBRANCH   8   9
ENDBRANCH   1   3
BRANCH   1  20
ATOM     20  C   UNL     1     135.015 137.770 150.500  1.00  0.00     0.227 C 
ATOM     21  O   UNL     1     135.649 138.850 150.570  1.00  0.00    -0.274 OA
ATOM     22  N   UNL     1     134.809 137.124 149.256  1.00  0.00    -0.326 N 
ATOM     23  H   UNL     1     134.267 136.226 149.301  1.00  0.00     0.169 HD
BRANCH  22  24
ATOM     24  C   UNL     1     135.248 137.559 148.007  1.00  0.00     0.041 A 
ATOM     25  C   UNL     1     136.419 137.225 147.382  1.00  0.00     0.027 A 
ATOM     26  C   UNL     1     134.421 138.437 147.288  1.00  0.00     0.027 A 
ATOM     27  C   UNL     1     136.771 137.717 146.120  1.00  0.00     0.022 A 
ATOM     28  C   UNL     1     134.757 138.922 146.056  1.00  0.00     0.022 A 
ATOM     29  C   UNL     1     135.942 138.572 145.445  1.00  0.00     0.041 A 
ATOM     30  Cl  UNL     1     136.322 139.216 143.879  1.00  0.00    -0.084 Cl
ENDBRANCH  22  24
ENDBRANCH   1  20
TORSDOF 4
ENDMDL
