MODEL 1
REMARK VINA RESULT:    -7.535      0.000      0.000
REMARK INTER + INTRA:         -10.467
REMARK INTER:                  -9.297
REMARK INTRA:                  -1.170
REMARK UNBOUND:                -1.170
REMARK SMILES C[C@@H](C(=O)Nc1ccc(Cl)cc1)[C@H]1CC[C@@H](c2ccnc3ccc(F)cc32)CC1
REMARK SMILES IDX 2 1 1 2 13 3 14 4 29 5 15 6 28 7 16 8 17 9 18 10 27 11 19 12
REMARK SMILES IDX 26 13 21 14 20 15 24 16 22 17 23 18 25 19 3 20 4 21 5 22
REMARK SMILES IDX 6 24 7 25 12 26 8 27 11 28 9 29 10 30
REMARK H PARENT 5 23
ROOT
ATOM      1  C   UNL     1     134.948 137.116 151.392  1.00  0.00     0.079 C 
ATOM      2  C   UNL     1     134.828 135.622 151.183  1.00  0.00     0.018 C 
ENDROOT
BRANCH   1   3
ATOM      3  C   UNL     1     133.672 137.765 151.849  1.00  0.00     0.001 C 
ATOM      4  C   UNL     1     133.898 138.964 152.685  1.00  0.00     0.005 C 
ATOM      5  C   UNL     1     132.724 136.728 152.398  1.00  0.00     0.005 C 
ATOM      6  C   UNL     1     133.943 138.736 154.184  1.00  0.00     0.009 C 
ATOM      7  C   UNL     1     132.952 136.524 153.914  1.00  0.00     0.009 C 
ATOM      8  C   UNL     1     132.811 137.843 154.548  1.00  0.00     0.020 C 
BRANCH   8   9
ATOM      9  C   UNL     1     132.208 137.958 155.875  1.00  0.00    -0.034 A 
ATOM     10  C   UNL     1     132.924 137.878 157.076  1.00  0.00     0.025 A 
ATOM     11  C   UNL     1     130.836 138.189 156.055  1.00  0.00     0.007 A 
ATOM     12  C   UNL     1     132.335 138.012 158.311  1.00  0.00     0.112 A 
ATOM     13  C   UNL     1     129.970 138.288 154.989  1.00  0.00     0.049 A 
ATOM     14  C   UNL     1     130.278 138.319 157.313  1.00  0.00     0.071 A 
ATOM     15  N   UNL     1     131.014 138.233 158.436  1.00  0.00    -0.256 NA
ATOM     16  C   UNL     1     128.632 138.504 155.114  1.00  0.00     0.123 A 
ATOM     17  C   UNL     1     128.922 138.539 157.478  1.00  0.00     0.032 A 
ATOM     18  C   UNL     1     128.086 138.633 156.375  1.00  0.00     0.041 A 
ATOM     19  F   UNL     1     127.832 138.593 154.026  1.00  0.00    -0.207 F 
ENDBRANCH   8   9
ENDBRANCH   1   3
BRANCH   1  20
ATOM     20  C   UNL     1     135.505 137.696 150.155  1.00  0.00     0.227 C 
ATOM     21  O   UNL     1     136.273 138.685 150.229  1.00  0.00    -0.274 OA
ATOM     22  N   UNL     1     135.165 137.129 148.902  1.00  0.00    -0.326 N 
ATOM     23  H   UNL     1     134.515 136.304 148.944  1.00  0.00     0.169 HD
BRANCH  22  24
ATOM     24  C   UNL     1     135.601 137.552 147.647  1.00  0.00     0.041 A 
ATOM     25  C   UNL     1     136.761 137.195 147.014  1.00  0.00     0.027 A 
ATOM     26  C   UNL     1     134.785 138.443 146.932  1.00  0.00     0.027 A 
ATOM     27  C   UNL     1     137.111 137.677 145.747  1.00  0.00     0.022 A 
ATOM     28  C   UNL     1     135.119 138.918 145.696  1.00  0.00     0.022 A 
ATOM     29  C   UNL     1     136.292 138.544 145.077  1.00  0.00     0.041 A 
ATOM     30  Cl  UNL     1     136.670 139.176 143.506  1.00  0.00    -0.084 Cl
ENDBRANCH  22  24
ENDBRANCH   1  20
TORSDOF 4
ENDMDL
