MODEL 1
REMARK VINA RESULT:    -7.153      0.000      0.000
REMARK INTER + INTRA:         -10.196
REMARK INTER:                  -8.825
REMARK INTRA:                  -1.371
REMARK UNBOUND:                -1.371
REMARK SMILES C[C@@H](C(=O)Nc1ccc(Cl)cc1)[C@H]1CC[C@@H](c2ccnc3ccc(F)cc32)CC1
REMARK SMILES IDX 2 1 1 2 13 3 14 4 29 5 15 6 28 7 16 8 17 9 18 10 27 11 19 12
REMARK SMILES IDX 26 13 21 14 20 15 24 16 22 17 23 18 25 19 3 20 4 21 5 22
REMARK SMILES IDX 6 24 7 25 12 26 8 27 11 28 9 29 10 30
REMARK H PARENT 5 23
ROOT
ATOM      1  C   UNL     1     134.483 137.177 151.742  1.00  0.00     0.079 C 
ATOM      2  C   UNL     1     134.941 135.735 151.780  1.00  0.00     0.018 C 
ENDROOT
BRANCH   1   3
ATOM      3  C   UNL     1     133.000 137.344 151.912  1.00  0.00     0.001 C 
ATOM      4  C   UNL     1     132.616 138.700 152.359  1.00  0.00     0.005 C 
ATOM      5  C   UNL     1     132.428 136.187 152.693  1.00  0.00     0.005 C 
ATOM      6  C   UNL     1     132.485 138.898 153.857  1.00  0.00     0.009 C 
ATOM      7  C   UNL     1     132.453 136.485 154.211  1.00  0.00     0.009 C 
ATOM      8  C   UNL     1     131.724 137.747 154.410  1.00  0.00     0.020 C 
BRANCH   8   9
ATOM      9  C   UNL     1     130.905 137.939 155.606  1.00  0.00    -0.034 A 
ATOM     10  C   UNL     1     131.414 138.282 156.864  1.00  0.00     0.025 A 
ATOM     11  C   UNL     1     129.508 137.818 155.581  1.00  0.00     0.007 A 
ATOM     12  C   UNL     1     130.619 138.479 157.968  1.00  0.00     0.112 A 
ATOM     13  C   UNL     1     128.827 137.478 154.433  1.00  0.00     0.049 A 
ATOM     14  C   UNL     1     128.738 138.024 156.711  1.00  0.00     0.071 A 
ATOM     15  N   UNL     1     129.281 138.352 157.897  1.00  0.00    -0.256 NA
ATOM     16  C   UNL     1     127.475 137.341 154.362  1.00  0.00     0.123 A 
ATOM     17  C   UNL     1     127.361 137.894 156.676  1.00  0.00     0.032 A 
ATOM     18  C   UNL     1     126.718 137.550 155.497  1.00  0.00     0.041 A 
ATOM     19  F   UNL     1     126.865 137.005 153.202  1.00  0.00    -0.207 F 
ENDBRANCH   8   9
ENDBRANCH   1   3
BRANCH   1  20
ATOM     20  C   UNL     1     135.017 137.782 150.506  1.00  0.00     0.227 C 
ATOM     21  O   UNL     1     135.640 138.869 150.570  1.00  0.00    -0.274 OA
ATOM     22  N   UNL     1     134.818 137.127 149.266  1.00  0.00    -0.326 N 
ATOM     23  H   UNL     1     134.285 136.224 149.315  1.00  0.00     0.169 HD
BRANCH  22  24
ATOM     24  C   UNL     1     135.254 137.560 148.014  1.00  0.00     0.041 A 
ATOM     25  C   UNL     1     136.421 137.220 147.385  1.00  0.00     0.027 A 
ATOM     26  C   UNL     1     134.428 138.439 147.297  1.00  0.00     0.027 A 
ATOM     27  C   UNL     1     136.770 137.711 146.121  1.00  0.00     0.022 A 
ATOM     28  C   UNL     1     134.760 138.922 146.063  1.00  0.00     0.022 A 
ATOM     29  C   UNL     1     135.941 138.567 145.448  1.00  0.00     0.041 A 
ATOM     30  Cl  UNL     1     136.318 139.208 143.881  1.00  0.00    -0.084 Cl
ENDBRANCH  22  24
ENDBRANCH   1  20
TORSDOF 4
ENDMDL
