MODEL 1
REMARK VINA RESULT:    -7.493      0.000      0.000
REMARK INTER + INTRA:         -10.430
REMARK INTER:                  -9.245
REMARK INTRA:                  -1.185
REMARK UNBOUND:                -1.185
REMARK SMILES C[C@@H](C(=O)Nc1ccc(Cl)cc1)[C@H]1CC[C@@H](c2ccnc3ccc(F)cc32)CC1
REMARK SMILES IDX 2 1 1 2 13 3 14 4 29 5 15 6 28 7 16 8 17 9 18 10 27 11 19 12
REMARK SMILES IDX 26 13 21 14 20 15 24 16 22 17 23 18 25 19 3 20 4 21 5 22
REMARK SMILES IDX 6 24 7 25 12 26 8 27 11 28 9 29 10 30
REMARK H PARENT 5 23
ROOT
ATOM      1  C   UNL     1     134.961 137.158 151.359  1.00  0.00     0.079 C 
ATOM      2  C   UNL     1     134.862 135.663 151.149  1.00  0.00     0.018 C 
ENDROOT
BRANCH   1   3
ATOM      3  C   UNL     1     133.678 137.789 151.820  1.00  0.00     0.001 C 
ATOM      4  C   UNL     1     133.890 138.992 152.654  1.00  0.00     0.005 C 
ATOM      5  C   UNL     1     132.746 136.739 152.371  1.00  0.00     0.005 C 
ATOM      6  C   UNL     1     133.942 138.764 154.153  1.00  0.00     0.009 C 
ATOM      7  C   UNL     1     132.982 136.538 153.886  1.00  0.00     0.009 C 
ATOM      8  C   UNL     1     132.824 137.856 154.521  1.00  0.00     0.020 C 
BRANCH   8   9
ATOM      9  C   UNL     1     132.224 137.963 155.850  1.00  0.00    -0.034 A 
ATOM     10  C   UNL     1     132.942 137.876 157.049  1.00  0.00     0.025 A 
ATOM     11  C   UNL     1     130.852 138.192 156.034  1.00  0.00     0.007 A 
ATOM     12  C   UNL     1     132.355 138.002 158.286  1.00  0.00     0.112 A 
ATOM     13  C   UNL     1     129.984 138.297 154.970  1.00  0.00     0.049 A 
ATOM     14  C   UNL     1     130.296 138.315 157.293  1.00  0.00     0.071 A 
ATOM     15  N   UNL     1     131.034 138.222 158.414  1.00  0.00    -0.256 NA
ATOM     16  C   UNL     1     128.646 138.512 155.099  1.00  0.00     0.123 A 
ATOM     17  C   UNL     1     128.940 138.533 157.462  1.00  0.00     0.032 A 
ATOM     18  C   UNL     1     128.103 138.633 156.361  1.00  0.00     0.041 A 
ATOM     19  F   UNL     1     127.844 138.607 154.012  1.00  0.00    -0.207 F 
ENDBRANCH   8   9
ENDBRANCH   1   3
BRANCH   1  20
ATOM     20  C   UNL     1     135.508 137.747 150.120  1.00  0.00     0.227 C 
ATOM     21  O   UNL     1     136.367 138.658 150.197  1.00  0.00    -0.274 OA
ATOM     22  N   UNL     1     135.055 137.276 148.864  1.00  0.00    -0.326 N 
ATOM     23  H   UNL     1     134.334 136.512 148.903  1.00  0.00     0.169 HD
BRANCH  22  24
ATOM     24  C   UNL     1     135.465 137.720 147.608  1.00  0.00     0.041 A 
ATOM     25  C   UNL     1     136.633 137.410 146.964  1.00  0.00     0.027 A 
ATOM     26  C   UNL     1     134.610 138.582 146.902  1.00  0.00     0.027 A 
ATOM     27  C   UNL     1     136.955 137.910 145.697  1.00  0.00     0.022 A 
ATOM     28  C   UNL     1     134.916 139.074 145.666  1.00  0.00     0.022 A 
ATOM     29  C   UNL     1     136.098 138.748 145.036  1.00  0.00     0.041 A 
ATOM     30  Cl  UNL     1     136.441 139.400 143.465  1.00  0.00    -0.084 Cl
ENDBRANCH  22  24
ENDBRANCH   1  20
TORSDOF 4
ENDMDL
