MODEL 1
REMARK VINA RESULT:    -7.567      0.000      0.000
REMARK INTER + INTRA:         -10.478
REMARK INTER:                  -9.336
REMARK INTRA:                  -1.141
REMARK UNBOUND:                -1.141
REMARK SMILES C[C@@H](C(=O)Nc1ccc(Cl)cc1)[C@H]1CC[C@@H](c2ccnc3ccc(F)cc32)CC1
REMARK SMILES IDX 2 1 1 2 13 3 14 4 29 5 15 6 28 7 16 8 17 9 18 10 27 11 19 12
REMARK SMILES IDX 26 13 21 14 20 15 24 16 22 17 23 18 25 19 3 20 4 21 5 22
REMARK SMILES IDX 6 24 7 25 12 26 8 27 11 28 9 29 10 30
REMARK H PARENT 5 23
ROOT
ATOM      1  C   UNL     1     134.984 137.161 151.409  1.00  0.00     0.079 C 
ATOM      2  C   UNL     1     134.871 135.662 151.230  1.00  0.00     0.018 C 
ENDROOT
BRANCH   1   3
ATOM      3  C   UNL     1     133.708 137.813 151.859  1.00  0.00     0.001 C 
ATOM      4  C   UNL     1     133.932 139.001 152.710  1.00  0.00     0.005 C 
ATOM      5  C   UNL     1     132.746 136.776 152.384  1.00  0.00     0.005 C 
ATOM      6  C   UNL     1     133.957 138.755 154.207  1.00  0.00     0.009 C 
ATOM      7  C   UNL     1     132.955 136.553 153.900  1.00  0.00     0.009 C 
ATOM      8  C   UNL     1     132.815 137.866 154.548  1.00  0.00     0.020 C 
BRANCH   8   9
ATOM      9  C   UNL     1     132.198 137.971 155.869  1.00  0.00    -0.034 A 
ATOM     10  C   UNL     1     132.900 137.885 157.077  1.00  0.00     0.025 A 
ATOM     11  C   UNL     1     130.823 138.194 156.035  1.00  0.00     0.007 A 
ATOM     12  C   UNL     1     132.298 138.009 158.306  1.00  0.00     0.112 A 
ATOM     13  C   UNL     1     129.968 138.297 154.960  1.00  0.00     0.049 A 
ATOM     14  C   UNL     1     130.250 138.315 157.288  1.00  0.00     0.071 A 
ATOM     15  N   UNL     1     130.975 138.224 158.418  1.00  0.00    -0.256 NA
ATOM     16  C   UNL     1     128.628 138.507 155.072  1.00  0.00     0.123 A 
ATOM     17  C   UNL     1     128.892 138.528 157.439  1.00  0.00     0.032 A 
ATOM     18  C   UNL     1     128.068 138.626 156.328  1.00  0.00     0.041 A 
ATOM     19  F   UNL     1     127.839 138.600 153.976  1.00  0.00    -0.207 F 
ENDBRANCH   8   9
ENDBRANCH   1   3
BRANCH   1  20
ATOM     20  C   UNL     1     135.534 137.719 150.158  1.00  0.00     0.227 C 
ATOM     21  O   UNL     1     136.296 138.713 150.209  1.00  0.00    -0.274 OA
ATOM     22  N   UNL     1     135.194 137.124 148.918  1.00  0.00    -0.326 N 
ATOM     23  H   UNL     1     134.549 136.296 148.979  1.00  0.00     0.169 HD
BRANCH  22  24
ATOM     24  C   UNL     1     135.623 137.524 147.654  1.00  0.00     0.041 A 
ATOM     25  C   UNL     1     136.754 137.115 147.000  1.00  0.00     0.027 A 
ATOM     26  C   UNL     1     134.831 138.445 146.951  1.00  0.00     0.027 A 
ATOM     27  C   UNL     1     137.099 137.578 145.725  1.00  0.00     0.022 A 
ATOM     28  C   UNL     1     135.160 138.902 145.707  1.00  0.00     0.022 A 
ATOM     29  C   UNL     1     136.305 138.477 145.066  1.00  0.00     0.041 A 
ATOM     30  Cl  UNL     1     136.679 139.086 143.486  1.00  0.00    -0.084 Cl
ENDBRANCH  22  24
ENDBRANCH   1  20
TORSDOF 4
ENDMDL
