MODEL 1
REMARK VINA RESULT:    -6.512      0.000      0.000
REMARK INTER + INTRA:         -10.791
REMARK INTER:                  -9.558
REMARK INTRA:                  -1.234
REMARK UNBOUND:                -1.234
REMARK SMILES Cn1nc(C(F)(F)F)cc1C(=O)Nc1ccc(S(=O)(=O)N2CCCC[C@H]2CCN2CCOCC2)cc1
REMARK SMILES IDX 16 1 15 2 17 3 35 4 36 5 14 6 13 7 11 8 12 9 10 11 2 12 3 13
REMARK SMILES IDX 4 14 9 15 1 16 5 17 6 18 7 19 8 20 18 21 19 22 20 23 21 24
REMARK SMILES IDX 26 25 22 26 25 27 23 28 24 29 27 30 28 31 29 32 30 33 34 34
REMARK SMILES IDX 31 35 33 36 32 37
REMARK H PARENT 13 10
ROOT
ATOM      1  C   UNL     1     135.721 136.941 150.843  1.00  0.00     0.024 A 
ATOM      2  C   UNL     1     136.355 137.600 149.624  1.00  0.00     0.027 A 
ATOM      3  C   UNL     1     134.302 136.390 150.749  1.00  0.00     0.082 A 
ATOM      4  C   UNL     1     133.511 136.495 149.454  1.00  0.00     0.024 A 
ATOM      5  C   UNL     1     134.145 137.154 148.237  1.00  0.00     0.027 A 
ATOM      6  C   UNL     1     135.570 137.688 148.319  1.00  0.00     0.041 A 
ENDROOT
BRANCH   6   7
ATOM      7  N   UNL     1     136.150 138.344 147.170  1.00  0.00    -0.321 N 
ATOM      8  C   UNL     1     136.742 137.683 146.026  1.00  0.00     0.273 C 
ATOM      9  O   UNL     1     136.817 136.506 145.940  1.00  0.00    -0.267 OA
ATOM     10  H   UNL     1     136.142 139.328 147.165  1.00  0.00     0.170 HD
BRANCH   8  11
ATOM     11  C   UNL     1     137.225 138.623 144.929  1.00  0.00     0.126 A 
ATOM     12  N   UNL     1     138.412 138.713 144.340  1.00  0.00    -0.262 N 
ATOM     13  N   UNL     1     138.334 139.723 143.390  1.00  0.00    -0.168 NA
ATOM     14  C   UNL     1     137.104 140.222 143.417  1.00  0.00     0.167 A 
ATOM     15  C   UNL     1     136.404 139.547 144.362  1.00  0.00     0.069 A 
ATOM     16  C   UNL     1     139.592 137.919 144.624  1.00  0.00     0.174 C 
BRANCH  14  17
ATOM     17  C   UNL     1     136.539 141.347 142.558  1.00  0.00     0.435 C 
ATOM     18  F   UNL     1     136.794 141.093 141.243  1.00  0.00    -0.164 F 
ATOM     19  F   UNL     1     137.109 142.533 142.913  1.00  0.00    -0.164 F 
ATOM     20  F   UNL     1     135.192 141.414 142.752  1.00  0.00    -0.164 F 
ENDBRANCH  14  17
ENDBRANCH   8  11
ENDBRANCH   6   7
BRANCH   3  21
ATOM     21  S   UNL     1     133.528 135.615 152.187  1.00  0.00     0.243 S 
ATOM     22  O   UNL     1     134.516 135.095 153.128  1.00  0.00    -0.207 OA
ATOM     23  O   UNL     1     132.820 134.400 151.790  1.00  0.00    -0.207 OA
BRANCH  21  24
ATOM     24  N   UNL     1     132.488 136.767 152.910  1.00  0.00    -0.195 NA
ATOM     25  C   UNL     1     132.017 136.573 154.346  1.00  0.00     0.074 C 
ATOM     26  C   UNL     1     132.712 138.259 152.686  1.00  0.00     0.103 C 
ATOM     27  C   UNL     1     132.893 137.286 155.364  1.00  0.00     0.020 C 
ATOM     28  C   UNL     1     133.586 138.919 153.741  1.00  0.00     0.017 C 
ATOM     29  C   UNL     1     133.082 138.696 155.076  1.00  0.00     0.003 C 
BRANCH  25  30
ATOM     30  C   UNL     1     130.597 137.071 154.477  1.00  0.00     0.036 C 
BRANCH  30  31
ATOM     31  C   UNL     1     129.654 136.005 153.925  1.00  0.00     0.086 C 
BRANCH  31  32
ATOM     32  N   UNL     1     128.454 136.358 154.107  1.00  0.00    -0.299 NA
ATOM     33  C   UNL     1     127.843 135.488 154.987  1.00  0.00     0.113 C 
ATOM     34  C   UNL     1     128.397 137.666 154.549  1.00  0.00     0.113 C 
ATOM     35  C   UNL     1     126.401 135.904 155.269  1.00  0.00     0.175 C 
ATOM     36  C   UNL     1     126.962 138.099 154.844  1.00  0.00     0.175 C 
ATOM     37  O   UNL     1     126.318 137.218 155.694  1.00  0.00    -0.379 OA
ENDBRANCH  31  32
ENDBRANCH  30  31
ENDBRANCH  25  30
ENDBRANCH  21  24
ENDBRANCH   3  21
TORSDOF 8
ENDMDL
