MODEL 1
REMARK VINA RESULT:    -6.525      0.000      0.000
REMARK INTER + INTRA:         -10.813
REMARK INTER:                  -9.577
REMARK INTRA:                  -1.236
REMARK UNBOUND:                -1.236
REMARK SMILES Cn1nc(C(F)(F)F)cc1C(=O)Nc1ccc(S(=O)(=O)N2CCCC[C@H]2CCN2CCOCC2)cc1
REMARK SMILES IDX 16 1 15 2 17 3 35 4 36 5 14 6 13 7 11 8 12 9 10 11 2 12 3 13
REMARK SMILES IDX 4 14 9 15 1 16 5 17 6 18 7 19 8 20 18 21 19 22 20 23 21 24
REMARK SMILES IDX 26 25 22 26 25 27 23 28 24 29 27 30 28 31 29 32 30 33 34 34
REMARK SMILES IDX 31 35 33 36 32 37
REMARK H PARENT 13 10
ROOT
ATOM      1  C   UNL     1     135.758 136.935 150.850  1.00  0.00     0.024 A 
ATOM      2  C   UNL     1     136.412 137.590 149.640  1.00  0.00     0.027 A 
ATOM      3  C   UNL     1     134.342 136.379 150.732  1.00  0.00     0.082 A 
ATOM      4  C   UNL     1     133.575 136.475 149.423  1.00  0.00     0.024 A 
ATOM      5  C   UNL     1     134.230 137.130 148.214  1.00  0.00     0.027 A 
ATOM      6  C   UNL     1     135.651 137.668 148.320  1.00  0.00     0.041 A 
ENDROOT
BRANCH   6   7
ATOM      7  N   UNL     1     136.250 138.321 147.179  1.00  0.00    -0.321 N 
ATOM      8  C   UNL     1     136.745 137.661 145.988  1.00  0.00     0.273 C 
ATOM      9  O   UNL     1     136.713 136.487 145.853  1.00  0.00    -0.267 OA
ATOM     10  H   UNL     1     136.328 139.301 147.213  1.00  0.00     0.170 HD
BRANCH   8  11
ATOM     11  C   UNL     1     137.274 138.602 144.913  1.00  0.00     0.126 A 
ATOM     12  N   UNL     1     138.479 138.678 144.360  1.00  0.00    -0.262 N 
ATOM     13  N   UNL     1     138.443 139.696 143.416  1.00  0.00    -0.168 NA
ATOM     14  C   UNL     1     137.222 140.216 143.413  1.00  0.00     0.167 A 
ATOM     15  C   UNL     1     136.484 139.545 144.332  1.00  0.00     0.069 A 
ATOM     16  C   UNL     1     139.636 137.862 144.670  1.00  0.00     0.174 C 
BRANCH  14  17
ATOM     17  C   UNL     1     136.700 141.357 142.548  1.00  0.00     0.435 C 
ATOM     18  F   UNL     1     135.605 140.942 141.851  1.00  0.00    -0.164 F 
ATOM     19  F   UNL     1     137.669 141.760 141.679  1.00  0.00    -0.164 F 
ATOM     20  F   UNL     1     136.353 142.398 143.357  1.00  0.00    -0.164 F 
ENDBRANCH  14  17
ENDBRANCH   8  11
ENDBRANCH   6   7
BRANCH   3  21
ATOM     21  S   UNL     1     133.544 135.608 152.160  1.00  0.00     0.243 S 
ATOM     22  O   UNL     1     134.517 135.087 153.116  1.00  0.00    -0.207 OA
ATOM     23  O   UNL     1     132.838 134.395 151.755  1.00  0.00    -0.207 OA
BRANCH  21  24
ATOM     24  N   UNL     1     132.498 136.765 152.866  1.00  0.00    -0.195 NA
ATOM     25  C   UNL     1     132.030 136.591 154.305  1.00  0.00     0.074 C 
ATOM     26  C   UNL     1     132.712 138.254 152.618  1.00  0.00     0.103 C 
ATOM     27  C   UNL     1     132.903 137.325 155.310  1.00  0.00     0.020 C 
ATOM     28  C   UNL     1     133.582 138.937 153.661  1.00  0.00     0.017 C 
ATOM     29  C   UNL     1     133.082 138.732 155.000  1.00  0.00     0.003 C 
BRANCH  25  30
ATOM     30  C   UNL     1     130.607 137.081 154.430  1.00  0.00     0.036 C 
BRANCH  30  31
ATOM     31  C   UNL     1     129.669 135.992 153.917  1.00  0.00     0.086 C 
BRANCH  31  32
ATOM     32  N   UNL     1     128.467 136.338 154.103  1.00  0.00    -0.299 NA
ATOM     33  C   UNL     1     127.862 135.459 154.979  1.00  0.00     0.113 C 
ATOM     34  C   UNL     1     128.404 137.642 154.553  1.00  0.00     0.113 C 
ATOM     35  C   UNL     1     126.418 135.866 155.266  1.00  0.00     0.175 C 
ATOM     36  C   UNL     1     126.968 138.066 154.853  1.00  0.00     0.175 C 
ATOM     37  O   UNL     1     126.330 137.176 155.699  1.00  0.00    -0.379 OA
ENDBRANCH  31  32
ENDBRANCH  30  31
ENDBRANCH  25  30
ENDBRANCH  21  24
ENDBRANCH   3  21
TORSDOF 8
ENDMDL
