REMARK SMILES C[C@@H](C(=O)Nc1ccc(Cl)cc1)[C@H]1CC[C@@H](c2ccnc3ccc(F)cc32)CC1
REMARK SMILES IDX 2 1 1 2 13 3 14 4 29 5 15 6 28 7 16 8 17 9 18 10 27 11 19 12
REMARK SMILES IDX 26 13 21 14 20 15 24 16 22 17 23 18 25 19 3 20 4 21 5 22
REMARK SMILES IDX 6 24 7 25 12 26 8 27 11 28 9 29 10 30
REMARK H PARENT 5 23
ROOT
ATOM      1  C   UNL     1       1.514   1.220  -0.509  1.00  0.00     0.079 C 
ATOM      2  C   UNL     1       2.040   2.638  -0.452  1.00  0.00     0.018 C 
ENDROOT
BRANCH   1   3
ATOM      3  C   UNL     1       0.702   0.829   0.693  1.00  0.00     0.001 C 
ATOM      4  C   UNL     1       0.194  -0.558   0.624  1.00  0.00     0.005 C 
ATOM      5  C   UNL     1      -0.307   1.903   1.016  1.00  0.00     0.005 C 
ATOM      6  C   UNL     1      -1.191  -0.734   0.031  1.00  0.00     0.009 C 
ATOM      7  C   UNL     1      -1.634   1.653   0.262  1.00  0.00     0.009 C 
ATOM      8  C   UNL     1      -2.081   0.299   0.623  1.00  0.00     0.020 C 
BRANCH   8   9
ATOM      9  C   UNL     1      -3.507   0.013   0.773  1.00  0.00    -0.034 A 
ATOM     10  C   UNL     1      -4.124  -0.304   1.989  1.00  0.00     0.025 A 
ATOM     11  C   UNL     1      -4.396   0.059  -0.311  1.00  0.00     0.007 A 
ATOM     12  C   UNL     1      -5.472  -0.547   2.106  1.00  0.00     0.112 A 
ATOM     13  C   UNL     1      -3.970   0.346  -1.589  1.00  0.00     0.049 A 
ATOM     14  C   UNL     1      -5.747  -0.190  -0.157  1.00  0.00     0.071 A 
ATOM     15  N   UNL     1      -6.288  -0.491   1.038  1.00  0.00    -0.256 NA
ATOM     16  C   UNL     1      -4.793   0.395  -2.672  1.00  0.00     0.123 A 
ATOM     17  C   UNL     1      -6.613  -0.149  -1.235  1.00  0.00     0.032 A 
ATOM     18  C   UNL     1      -6.140   0.145  -2.505  1.00  0.00     0.041 A 
ATOM     19  F   UNL     1      -4.313   0.684  -3.904  1.00  0.00    -0.207 F 
ENDBRANCH   8   9
ENDBRANCH   1   3
BRANCH   1  20
ATOM     20  C   UNL     1       2.661   0.329  -0.773  1.00  0.00     0.227 C 
ATOM     21  O   UNL     1       2.727  -0.284  -1.865  1.00  0.00    -0.274 OA
ATOM     22  N   UNL     1       3.670   0.179   0.210  1.00  0.00    -0.326 N 
ATOM     23  H   UNL     1       3.525   0.733   1.091  1.00  0.00     0.169 HD
BRANCH  22  24
ATOM     24  C   UNL     1       4.811  -0.617   0.121  1.00  0.00     0.041 A 
ATOM     25  C   UNL     1       5.183  -1.410  -0.931  1.00  0.00     0.027 A 
ATOM     26  C   UNL     1       5.693  -0.628   1.213  1.00  0.00     0.027 A 
ATOM     27  C   UNL     1       6.354  -2.176  -0.924  1.00  0.00     0.022 A 
ATOM     28  C   UNL     1       6.838  -1.372   1.228  1.00  0.00     0.022 A 
ATOM     29  C   UNL     1       7.193  -2.164   0.157  1.00  0.00     0.041 A 
ATOM     30  Cl  UNL     1       8.658  -3.091   0.225  1.00  0.00    -0.084 Cl
ENDBRANCH  22  24
ENDBRANCH   1  20
TORSDOF 4
