MODEL 1
REMARK VINA RESULT:    -7.153      0.000      0.000
REMARK INTER + INTRA:         -10.193
REMARK INTER:                  -8.826
REMARK INTRA:                  -1.367
REMARK UNBOUND:                -1.367
REMARK SMILES C[C@@H](C(=O)Nc1ccc(Cl)cc1)[C@H]1CC[C@@H](c2ccnc3ccc(F)cc32)CC1
REMARK SMILES IDX 2 1 1 2 13 3 14 4 29 5 15 6 28 7 16 8 17 9 18 10 27 11 19 12
REMARK SMILES IDX 26 13 21 14 20 15 24 16 22 17 23 18 25 19 3 20 4 21 5 22
REMARK SMILES IDX 6 24 7 25 12 26 8 27 11 28 9 29 10 30
REMARK H PARENT 5 23
ROOT
ATOM      1  C   UNL     1     134.470 137.171 151.738  1.00  0.00     0.079 C 
ATOM      2  C   UNL     1     134.907 135.722 151.770  1.00  0.00     0.018 C 
ENDROOT
BRANCH   1   3
ATOM      3  C   UNL     1     132.990 137.359 151.909  1.00  0.00     0.001 C 
ATOM      4  C   UNL     1     132.626 138.716 152.370  1.00  0.00     0.005 C 
ATOM      5  C   UNL     1     132.400 136.203 152.677  1.00  0.00     0.005 C 
ATOM      6  C   UNL     1     132.498 138.899 153.870  1.00  0.00     0.009 C 
ATOM      7  C   UNL     1     132.429 136.484 154.198  1.00  0.00     0.009 C 
ATOM      8  C   UNL     1     131.719 137.754 154.410  1.00  0.00     0.020 C 
BRANCH   8   9
ATOM      9  C   UNL     1     130.902 137.947 155.608  1.00  0.00    -0.034 A 
ATOM     10  C   UNL     1     131.415 138.283 156.866  1.00  0.00     0.025 A 
ATOM     11  C   UNL     1     129.504 137.832 155.584  1.00  0.00     0.007 A 
ATOM     12  C   UNL     1     130.622 138.480 157.972  1.00  0.00     0.112 A 
ATOM     13  C   UNL     1     128.821 137.500 154.436  1.00  0.00     0.049 A 
ATOM     14  C   UNL     1     128.737 138.039 156.716  1.00  0.00     0.071 A 
ATOM     15  N   UNL     1     129.283 138.360 157.903  1.00  0.00    -0.256 NA
ATOM     16  C   UNL     1     127.468 137.370 154.366  1.00  0.00     0.123 A 
ATOM     17  C   UNL     1     127.360 137.915 156.682  1.00  0.00     0.032 A 
ATOM     18  C   UNL     1     126.713 137.579 155.502  1.00  0.00     0.041 A 
ATOM     19  F   UNL     1     126.855 137.041 153.205  1.00  0.00    -0.207 F 
ENDBRANCH   8   9
ENDBRANCH   1   3
BRANCH   1  20
ATOM     20  C   UNL     1     135.013 137.773 150.504  1.00  0.00     0.227 C 
ATOM     21  O   UNL     1     135.650 138.850 150.572  1.00  0.00    -0.274 OA
ATOM     22  N   UNL     1     134.805 137.125 149.261  1.00  0.00    -0.326 N 
ATOM     23  H   UNL     1     134.259 136.229 149.307  1.00  0.00     0.169 HD
BRANCH  22  24
ATOM     24  C   UNL     1     135.247 137.556 148.011  1.00  0.00     0.041 A 
ATOM     25  C   UNL     1     136.419 137.218 147.389  1.00  0.00     0.027 A 
ATOM     26  C   UNL     1     134.423 138.433 147.288  1.00  0.00     0.027 A 
ATOM     27  C   UNL     1     136.773 137.707 146.127  1.00  0.00     0.022 A 
ATOM     28  C   UNL     1     134.761 138.914 146.055  1.00  0.00     0.022 A 
ATOM     29  C   UNL     1     135.947 138.560 145.448  1.00  0.00     0.041 A 
ATOM     30  Cl  UNL     1     136.331 139.199 143.881  1.00  0.00    -0.084 Cl
ENDBRANCH  22  24
ENDBRANCH   1  20
TORSDOF 4
ENDMDL
