MODEL 1
REMARK VINA RESULT:    -7.561      0.000      0.000
REMARK INTER + INTRA:         -10.468
REMARK INTER:                  -9.329
REMARK INTRA:                  -1.140
REMARK UNBOUND:                -1.140
REMARK SMILES C[C@@H](C(=O)Nc1ccc(Cl)cc1)[C@H]1CC[C@@H](c2ccnc3ccc(F)cc32)CC1
REMARK SMILES IDX 2 1 1 2 13 3 14 4 29 5 15 6 28 7 16 8 17 9 18 10 27 11 19 12
REMARK SMILES IDX 26 13 21 14 20 15 24 16 22 17 23 18 25 19 3 20 4 21 5 22
REMARK SMILES IDX 6 24 7 25 12 26 8 27 11 28 9 29 10 30
REMARK H PARENT 5 23
ROOT
ATOM      1  C   UNL     1     134.984 137.163 151.409  1.00  0.00     0.079 C 
ATOM      2  C   UNL     1     134.878 135.664 151.229  1.00  0.00     0.018 C 
ENDROOT
BRANCH   1   3
ATOM      3  C   UNL     1     133.704 137.808 151.861  1.00  0.00     0.001 C 
ATOM      4  C   UNL     1     133.923 139.000 152.709  1.00  0.00     0.005 C 
ATOM      5  C   UNL     1     132.752 136.766 152.394  1.00  0.00     0.005 C 
ATOM      6  C   UNL     1     133.956 138.759 154.206  1.00  0.00     0.009 C 
ATOM      7  C   UNL     1     132.968 136.549 153.910  1.00  0.00     0.009 C 
ATOM      8  C   UNL     1     132.822 137.863 154.554  1.00  0.00     0.020 C 
BRANCH   8   9
ATOM      9  C   UNL     1     132.208 137.967 155.877  1.00  0.00    -0.034 A 
ATOM     10  C   UNL     1     132.915 137.880 157.082  1.00  0.00     0.025 A 
ATOM     11  C   UNL     1     130.835 138.192 156.048  1.00  0.00     0.007 A 
ATOM     12  C   UNL     1     132.317 138.004 158.314  1.00  0.00     0.112 A 
ATOM     13  C   UNL     1     129.976 138.296 154.976  1.00  0.00     0.049 A 
ATOM     14  C   UNL     1     130.266 138.312 157.302  1.00  0.00     0.071 A 
ATOM     15  N   UNL     1     130.994 138.220 158.430  1.00  0.00    -0.256 NA
ATOM     16  C   UNL     1     128.636 138.507 155.092  1.00  0.00     0.123 A 
ATOM     17  C   UNL     1     128.908 138.526 157.458  1.00  0.00     0.032 A 
ATOM     18  C   UNL     1     128.081 138.625 156.350  1.00  0.00     0.041 A 
ATOM     19  F   UNL     1     127.845 138.601 153.998  1.00  0.00    -0.207 F 
ENDBRANCH   8   9
ENDBRANCH   1   3
BRANCH   1  20
ATOM     20  C   UNL     1     135.529 137.726 150.158  1.00  0.00     0.227 C 
ATOM     21  O   UNL     1     136.247 138.753 150.205  1.00  0.00    -0.274 OA
ATOM     22  N   UNL     1     135.233 137.098 148.923  1.00  0.00    -0.326 N 
ATOM     23  H   UNL     1     134.624 136.245 148.987  1.00  0.00     0.169 HD
BRANCH  22  24
ATOM     24  C   UNL     1     135.665 137.498 147.659  1.00  0.00     0.041 A 
ATOM     25  C   UNL     1     136.805 137.103 147.014  1.00  0.00     0.027 A 
ATOM     26  C   UNL     1     134.864 138.404 146.946  1.00  0.00     0.027 A 
ATOM     27  C   UNL     1     137.152 137.563 145.739  1.00  0.00     0.022 A 
ATOM     28  C   UNL     1     135.194 138.858 145.701  1.00  0.00     0.022 A 
ATOM     29  C   UNL     1     136.349 138.447 145.070  1.00  0.00     0.041 A 
ATOM     30  Cl  UNL     1     136.724 139.053 143.489  1.00  0.00    -0.084 Cl
ENDBRANCH  22  24
ENDBRANCH   1  20
TORSDOF 4
ENDMDL
