MODEL 1
REMARK VINA RESULT:    -7.554      0.000      0.000
REMARK INTER + INTRA:         -10.464
REMARK INTER:                  -9.320
REMARK INTRA:                  -1.144
REMARK UNBOUND:                -1.144
REMARK SMILES C[C@@H](C(=O)Nc1ccc(Cl)cc1)[C@H]1CC[C@@H](c2ccnc3ccc(F)cc32)CC1
REMARK SMILES IDX 2 1 1 2 13 3 14 4 29 5 15 6 28 7 16 8 17 9 18 10 27 11 19 12
REMARK SMILES IDX 26 13 21 14 20 15 24 16 22 17 23 18 25 19 3 20 4 21 5 22
REMARK SMILES IDX 6 24 7 25 12 26 8 27 11 28 9 29 10 30
REMARK H PARENT 5 23
ROOT
ATOM      1  C   UNL     1     134.997 137.187 151.408  1.00  0.00     0.079 C 
ATOM      2  C   UNL     1     134.891 135.687 151.233  1.00  0.00     0.018 C 
ENDROOT
BRANCH   1   3
ATOM      3  C   UNL     1     133.718 137.834 151.858  1.00  0.00     0.001 C 
ATOM      4  C   UNL     1     133.937 139.020 152.713  1.00  0.00     0.005 C 
ATOM      5  C   UNL     1     132.760 136.793 152.380  1.00  0.00     0.005 C 
ATOM      6  C   UNL     1     133.962 138.771 154.209  1.00  0.00     0.009 C 
ATOM      7  C   UNL     1     132.969 136.566 153.896  1.00  0.00     0.009 C 
ATOM      8  C   UNL     1     132.824 137.877 154.547  1.00  0.00     0.020 C 
BRANCH   8   9
ATOM      9  C   UNL     1     132.205 137.976 155.868  1.00  0.00    -0.034 A 
ATOM     10  C   UNL     1     132.907 137.886 157.076  1.00  0.00     0.025 A 
ATOM     11  C   UNL     1     130.830 138.199 156.034  1.00  0.00     0.007 A 
ATOM     12  C   UNL     1     132.303 138.005 158.305  1.00  0.00     0.112 A 
ATOM     13  C   UNL     1     129.976 138.306 154.959  1.00  0.00     0.049 A 
ATOM     14  C   UNL     1     130.256 138.314 157.286  1.00  0.00     0.071 A 
ATOM     15  N   UNL     1     130.980 138.219 158.417  1.00  0.00    -0.256 NA
ATOM     16  C   UNL     1     128.636 138.515 155.070  1.00  0.00     0.123 A 
ATOM     17  C   UNL     1     128.898 138.526 157.438  1.00  0.00     0.032 A 
ATOM     18  C   UNL     1     128.075 138.629 156.326  1.00  0.00     0.041 A 
ATOM     19  F   UNL     1     127.848 138.612 153.974  1.00  0.00    -0.207 F 
ENDBRANCH   8   9
ENDBRANCH   1   3
BRANCH   1  20
ATOM     20  C   UNL     1     135.542 137.745 150.154  1.00  0.00     0.227 C 
ATOM     21  O   UNL     1     136.352 138.701 150.205  1.00  0.00    -0.274 OA
ATOM     22  N   UNL     1     135.142 137.193 148.912  1.00  0.00    -0.326 N 
ATOM     23  H   UNL     1     134.461 136.396 148.973  1.00  0.00     0.169 HD
BRANCH  22  24
ATOM     24  C   UNL     1     135.559 137.599 147.645  1.00  0.00     0.041 A 
ATOM     25  C   UNL     1     136.715 137.244 147.004  1.00  0.00     0.027 A 
ATOM     26  C   UNL     1     134.723 138.466 146.924  1.00  0.00     0.027 A 
ATOM     27  C   UNL     1     137.044 137.708 145.726  1.00  0.00     0.022 A 
ATOM     28  C   UNL     1     135.036 138.923 145.676  1.00  0.00     0.022 A 
ATOM     29  C   UNL     1     136.207 138.553 145.049  1.00  0.00     0.041 A 
ATOM     30  Cl  UNL     1     136.559 139.161 143.463  1.00  0.00    -0.084 Cl
ENDBRANCH  22  24
ENDBRANCH   1  20
TORSDOF 4
ENDMDL
