MODEL 1
REMARK VINA RESULT:    -7.169      0.000      0.000
REMARK INTER + INTRA:         -10.199
REMARK INTER:                  -8.846
REMARK INTRA:                  -1.353
REMARK UNBOUND:                -1.353
REMARK SMILES C[C@@H](C(=O)Nc1ccc(Cl)cc1)[C@H]1CC[C@@H](c2ccnc3ccc(F)cc32)CC1
REMARK SMILES IDX 2 1 1 2 13 3 14 4 29 5 15 6 28 7 16 8 17 9 18 10 27 11 19 12
REMARK SMILES IDX 26 13 21 14 20 15 24 16 22 17 23 18 25 19 3 20 4 21 5 22
REMARK SMILES IDX 6 24 7 25 12 26 8 27 11 28 9 29 10 30
REMARK H PARENT 5 23
ROOT
ATOM      1  C   UNL     1     134.482 137.193 151.750  1.00  0.00     0.079 C 
ATOM      2  C   UNL     1     134.924 135.746 151.794  1.00  0.00     0.018 C 
ENDROOT
BRANCH   1   3
ATOM      3  C   UNL     1     133.001 137.377 151.920  1.00  0.00     0.001 C 
ATOM      4  C   UNL     1     132.633 138.731 152.385  1.00  0.00     0.005 C 
ATOM      5  C   UNL     1     132.413 136.217 152.684  1.00  0.00     0.005 C 
ATOM      6  C   UNL     1     132.502 138.910 153.885  1.00  0.00     0.009 C 
ATOM      7  C   UNL     1     132.439 136.494 154.206  1.00  0.00     0.009 C 
ATOM      8  C   UNL     1     131.726 137.762 154.421  1.00  0.00     0.020 C 
BRANCH   8   9
ATOM      9  C   UNL     1     130.907 137.948 155.618  1.00  0.00    -0.034 A 
ATOM     10  C   UNL     1     131.416 138.288 156.876  1.00  0.00     0.025 A 
ATOM     11  C   UNL     1     129.510 137.823 155.593  1.00  0.00     0.007 A 
ATOM     12  C   UNL     1     130.621 138.480 157.981  1.00  0.00     0.112 A 
ATOM     13  C   UNL     1     128.830 137.485 154.444  1.00  0.00     0.049 A 
ATOM     14  C   UNL     1     128.740 138.024 156.724  1.00  0.00     0.071 A 
ATOM     15  N   UNL     1     129.284 138.350 157.912  1.00  0.00    -0.256 NA
ATOM     16  C   UNL     1     127.478 137.346 154.374  1.00  0.00     0.123 A 
ATOM     17  C   UNL     1     127.364 137.891 156.690  1.00  0.00     0.032 A 
ATOM     18  C   UNL     1     126.720 137.550 155.510  1.00  0.00     0.041 A 
ATOM     19  F   UNL     1     126.867 137.012 153.213  1.00  0.00    -0.207 F 
ENDBRANCH   8   9
ENDBRANCH   1   3
BRANCH   1  20
ATOM     20  C   UNL     1     135.022 137.788 150.512  1.00  0.00     0.227 C 
ATOM     21  O   UNL     1     135.643 138.876 150.570  1.00  0.00    -0.274 OA
ATOM     22  N   UNL     1     134.832 137.122 149.276  1.00  0.00    -0.326 N 
ATOM     23  H   UNL     1     134.299 136.218 149.330  1.00  0.00     0.169 HD
BRANCH  22  24
ATOM     24  C   UNL     1     135.274 137.543 148.023  1.00  0.00     0.041 A 
ATOM     25  C   UNL     1     136.436 137.184 147.395  1.00  0.00     0.027 A 
ATOM     26  C   UNL     1     134.461 138.434 147.304  1.00  0.00     0.027 A 
ATOM     27  C   UNL     1     136.792 137.665 146.130  1.00  0.00     0.022 A 
ATOM     28  C   UNL     1     134.801 138.908 146.069  1.00  0.00     0.022 A 
ATOM     29  C   UNL     1     135.976 138.532 145.455  1.00  0.00     0.041 A 
ATOM     30  Cl  UNL     1     136.362 139.162 143.885  1.00  0.00    -0.084 Cl
ENDBRANCH  22  24
ENDBRANCH   1  20
TORSDOF 4
ENDMDL
