MODEL 1
REMARK VINA RESULT:    -6.701      0.000      0.000
REMARK INTER + INTRA:         -11.030
REMARK INTER:                  -9.834
REMARK INTRA:                  -1.195
REMARK UNBOUND:                -1.195
REMARK SMILES Cn1nc(C(F)(F)F)cc1C(=O)Nc1ccc(S(=O)(=O)N2CCCC[C@H]2CCN2CCOCC2)cc1
REMARK SMILES IDX 16 1 15 2 17 3 35 4 36 5 14 6 13 7 11 8 12 9 10 11 2 12 3 13
REMARK SMILES IDX 4 14 9 15 1 16 5 17 6 18 7 19 8 20 18 21 19 22 20 23 21 24
REMARK SMILES IDX 26 25 22 26 25 27 23 28 24 29 27 30 28 31 29 32 30 33 34 34
REMARK SMILES IDX 31 35 33 36 32 37
REMARK H PARENT 13 10
ROOT
ATOM      1  C   UNL     1     135.762 136.951 150.809  1.00  0.00     0.024 A 
ATOM      2  C   UNL     1     136.434 137.604 149.607  1.00  0.00     0.027 A 
ATOM      3  C   UNL     1     134.362 136.365 150.664  1.00  0.00     0.082 A 
ATOM      4  C   UNL     1     133.626 136.429 149.335  1.00  0.00     0.024 A 
ATOM      5  C   UNL     1     134.298 137.081 148.135  1.00  0.00     0.027 A 
ATOM      6  C   UNL     1     135.705 137.650 148.269  1.00  0.00     0.041 A 
ENDROOT
BRANCH   6   7
ATOM      7  N   UNL     1     136.319 138.300 147.134  1.00  0.00    -0.321 N 
ATOM      8  C   UNL     1     136.857 137.635 145.965  1.00  0.00     0.273 C 
ATOM      9  O   UNL     1     136.852 136.459 145.844  1.00  0.00    -0.267 OA
ATOM     10  H   UNL     1     136.377 139.282 147.157  1.00  0.00     0.170 HD
BRANCH   8  11
ATOM     11  C   UNL     1     137.394 138.573 144.891  1.00  0.00     0.126 A 
ATOM     12  N   UNL     1     138.597 138.632 144.331  1.00  0.00    -0.262 N 
ATOM     13  N   UNL     1     138.572 139.656 143.392  1.00  0.00    -0.168 NA
ATOM     14  C   UNL     1     137.358 140.193 143.399  1.00  0.00     0.167 A 
ATOM     15  C   UNL     1     136.616 139.530 144.319  1.00  0.00     0.069 A 
ATOM     16  C   UNL     1     139.744 137.797 144.630  1.00  0.00     0.174 C 
BRANCH  14  17
ATOM     17  C   UNL     1     136.849 141.347 142.542  1.00  0.00     0.435 C 
ATOM     18  F   UNL     1     136.779 142.482 143.293  1.00  0.00    -0.164 F 
ATOM     19  F   UNL     1     135.614 141.047 142.049  1.00  0.00    -0.164 F 
ATOM     20  F   UNL     1     137.716 141.542 141.509  1.00  0.00    -0.164 F 
ENDBRANCH  14  17
ENDBRANCH   8  11
ENDBRANCH   6   7
BRANCH   3  21
ATOM     21  S   UNL     1     133.544 135.597 152.082  1.00  0.00     0.243 S 
ATOM     22  O   UNL     1     134.501 135.110 153.070  1.00  0.00    -0.207 OA
ATOM     23  O   UNL     1     132.874 134.363 151.676  1.00  0.00    -0.207 OA
BRANCH  21  24
ATOM     24  N   UNL     1     132.455 136.740 152.744  1.00  0.00    -0.195 NA
ATOM     25  C   UNL     1     131.943 136.568 154.169  1.00  0.00     0.074 C 
ATOM     26  C   UNL     1     132.651 138.231 152.492  1.00  0.00     0.103 C 
ATOM     27  C   UNL     1     132.770 137.326 155.196  1.00  0.00     0.020 C 
ATOM     28  C   UNL     1     133.475 138.937 153.556  1.00  0.00     0.017 C 
ATOM     29  C   UNL     1     132.935 138.733 154.881  1.00  0.00     0.003 C 
BRANCH  25  30
ATOM     30  C   UNL     1     130.509 137.035 154.243  1.00  0.00     0.036 C 
BRANCH  30  31
ATOM     31  C   UNL     1     129.594 135.843 153.973  1.00  0.00     0.086 C 
BRANCH  31  32
ATOM     32  N   UNL     1     128.387 136.187 154.122  1.00  0.00    -0.299 NA
ATOM     33  C   UNL     1     127.772 135.340 155.023  1.00  0.00     0.113 C 
ATOM     34  C   UNL     1     128.305 137.508 154.516  1.00  0.00     0.113 C 
ATOM     35  C   UNL     1     126.320 135.746 155.266  1.00  0.00     0.175 C 
ATOM     36  C   UNL     1     126.860 137.932 154.771  1.00  0.00     0.175 C 
ATOM     37  O   UNL     1     126.214 137.073 155.642  1.00  0.00    -0.379 OA
ENDBRANCH  31  32
ENDBRANCH  30  31
ENDBRANCH  25  30
ENDBRANCH  21  24
ENDBRANCH   3  21
TORSDOF 8
ENDMDL
