MODEL 1
REMARK VINA RESULT:    -6.527      0.000      0.000
REMARK INTER + INTRA:         -10.810
REMARK INTER:                  -9.580
REMARK INTRA:                  -1.230
REMARK UNBOUND:                -1.230
REMARK SMILES Cn1nc(C(F)(F)F)cc1C(=O)Nc1ccc(S(=O)(=O)N2CCCC[C@H]2CCN2CCOCC2)cc1
REMARK SMILES IDX 16 1 15 2 17 3 35 4 36 5 14 6 13 7 11 8 12 9 10 11 2 12 3 13
REMARK SMILES IDX 4 14 9 15 1 16 5 17 6 18 7 19 8 20 18 21 19 22 20 23 21 24
REMARK SMILES IDX 26 25 22 26 25 27 23 28 24 29 27 30 28 31 29 32 30 33 34 34
REMARK SMILES IDX 31 35 33 36 32 37
REMARK H PARENT 13 10
ROOT
ATOM      1  C   UNL     1     135.752 136.923 150.839  1.00  0.00     0.024 A 
ATOM      2  C   UNL     1     136.403 137.578 149.628  1.00  0.00     0.027 A 
ATOM      3  C   UNL     1     134.331 136.379 150.729  1.00  0.00     0.082 A 
ATOM      4  C   UNL     1     133.556 136.487 149.425  1.00  0.00     0.024 A 
ATOM      5  C   UNL     1     134.208 137.142 148.215  1.00  0.00     0.027 A 
ATOM      6  C   UNL     1     135.634 137.669 148.314  1.00  0.00     0.041 A 
ENDROOT
BRANCH   6   7
ATOM      7  N   UNL     1     136.231 138.321 147.171  1.00  0.00    -0.321 N 
ATOM      8  C   UNL     1     136.774 137.658 146.004  1.00  0.00     0.273 C 
ATOM      9  O   UNL     1     136.789 136.481 145.892  1.00  0.00    -0.267 OA
ATOM     10  H   UNL     1     136.271 139.304 147.188  1.00  0.00     0.170 HD
BRANCH   8  11
ATOM     11  C   UNL     1     137.288 138.598 144.921  1.00  0.00     0.126 A 
ATOM     12  N   UNL     1     138.484 138.669 144.347  1.00  0.00    -0.262 N 
ATOM     13  N   UNL     1     138.437 139.688 143.405  1.00  0.00    -0.168 NA
ATOM     14  C   UNL     1     137.218 140.212 143.423  1.00  0.00     0.167 A 
ATOM     15  C   UNL     1     136.493 139.543 144.354  1.00  0.00     0.069 A 
ATOM     16  C   UNL     1     139.644 137.849 144.638  1.00  0.00     0.174 C 
BRANCH  14  17
ATOM     17  C   UNL     1     136.685 141.356 142.567  1.00  0.00     0.435 C 
ATOM     18  F   UNL     1     135.923 140.855 141.554  1.00  0.00    -0.164 F 
ATOM     19  F   UNL     1     137.725 142.068 142.048  1.00  0.00    -0.164 F 
ATOM     20  F   UNL     1     135.920 142.169 143.348  1.00  0.00    -0.164 F 
ENDBRANCH  14  17
ENDBRANCH   8  11
ENDBRANCH   6   7
BRANCH   3  21
ATOM     21  S   UNL     1     133.537 135.609 152.159  1.00  0.00     0.243 S 
ATOM     22  O   UNL     1     134.511 135.086 153.111  1.00  0.00    -0.207 OA
ATOM     23  O   UNL     1     132.828 134.396 151.755  1.00  0.00    -0.207 OA
BRANCH  21  24
ATOM     24  N   UNL     1     132.493 136.766 152.868  1.00  0.00    -0.195 NA
ATOM     25  C   UNL     1     132.020 136.585 154.305  1.00  0.00     0.074 C 
ATOM     26  C   UNL     1     132.716 138.256 152.630  1.00  0.00     0.103 C 
ATOM     27  C   UNL     1     132.893 137.310 155.318  1.00  0.00     0.020 C 
ATOM     28  C   UNL     1     133.586 138.928 153.680  1.00  0.00     0.017 C 
ATOM     29  C   UNL     1     133.080 138.717 155.017  1.00  0.00     0.003 C 
BRANCH  25  30
ATOM     30  C   UNL     1     130.599 137.082 154.428  1.00  0.00     0.036 C 
BRANCH  30  31
ATOM     31  C   UNL     1     129.657 135.992 153.926  1.00  0.00     0.086 C 
BRANCH  31  32
ATOM     32  N   UNL     1     128.456 136.346 154.107  1.00  0.00    -0.299 NA
ATOM     33  C   UNL     1     127.842 135.472 154.982  1.00  0.00     0.113 C 
ATOM     34  C   UNL     1     128.400 137.651 154.555  1.00  0.00     0.113 C 
ATOM     35  C   UNL     1     126.400 135.888 155.263  1.00  0.00     0.175 C 
ATOM     36  C   UNL     1     126.965 138.085 154.849  1.00  0.00     0.175 C 
ATOM     37  O   UNL     1     126.318 137.200 155.694  1.00  0.00    -0.379 OA
ENDBRANCH  31  32
ENDBRANCH  30  31
ENDBRANCH  25  30
ENDBRANCH  21  24
ENDBRANCH   3  21
TORSDOF 8
ENDMDL
