MODEL 1
REMARK VINA RESULT:    -6.521      0.000      0.000
REMARK INTER + INTRA:         -10.815
REMARK INTER:                  -9.570
REMARK INTRA:                  -1.245
REMARK UNBOUND:                -1.245
REMARK SMILES Cn1nc(C(F)(F)F)cc1C(=O)Nc1ccc(S(=O)(=O)N2CCCC[C@H]2CCN2CCOCC2)cc1
REMARK SMILES IDX 16 1 15 2 17 3 35 4 36 5 14 6 13 7 11 8 12 9 10 11 2 12 3 13
REMARK SMILES IDX 4 14 9 15 1 16 5 17 6 18 7 19 8 20 18 21 19 22 20 23 21 24
REMARK SMILES IDX 26 25 22 26 25 27 23 28 24 29 27 30 28 31 29 32 30 33 34 34
REMARK SMILES IDX 31 35 33 36 32 37
REMARK H PARENT 13 10
ROOT
ATOM      1  C   UNL     1     135.737 136.904 150.845  1.00  0.00     0.024 A 
ATOM      2  C   UNL     1     136.380 137.563 149.630  1.00  0.00     0.027 A 
ATOM      3  C   UNL     1     134.308 136.379 150.749  1.00  0.00     0.082 A 
ATOM      4  C   UNL     1     133.517 136.509 149.458  1.00  0.00     0.024 A 
ATOM      5  C   UNL     1     134.160 137.167 148.245  1.00  0.00     0.027 A 
ATOM      6  C   UNL     1     135.594 137.675 148.328  1.00  0.00     0.041 A 
ENDROOT
BRANCH   6   7
ATOM      7  N   UNL     1     136.183 138.330 147.183  1.00  0.00    -0.321 N 
ATOM      8  C   UNL     1     136.711 137.670 146.007  1.00  0.00     0.273 C 
ATOM      9  O   UNL     1     136.719 136.494 145.888  1.00  0.00    -0.267 OA
ATOM     10  H   UNL     1     136.229 139.313 147.204  1.00  0.00     0.170 HD
BRANCH   8  11
ATOM     11  C   UNL     1     137.220 138.613 144.924  1.00  0.00     0.126 A 
ATOM     12  N   UNL     1     138.418 138.698 144.358  1.00  0.00    -0.262 N 
ATOM     13  N   UNL     1     138.364 139.713 143.411  1.00  0.00    -0.168 NA
ATOM     14  C   UNL     1     137.137 140.220 143.419  1.00  0.00     0.167 A 
ATOM     15  C   UNL     1     136.416 139.545 144.348  1.00  0.00     0.069 A 
ATOM     16  C   UNL     1     139.587 137.894 144.659  1.00  0.00     0.174 C 
BRANCH  14  17
ATOM     17  C   UNL     1     136.595 141.353 142.556  1.00  0.00     0.435 C 
ATOM     18  F   UNL     1     137.517 141.692 141.610  1.00  0.00    -0.164 F 
ATOM     19  F   UNL     1     136.319 142.437 143.334  1.00  0.00    -0.164 F 
ATOM     20  F   UNL     1     135.454 140.931 141.942  1.00  0.00    -0.164 F 
ENDBRANCH  14  17
ENDBRANCH   8  11
ENDBRANCH   6   7
BRANCH   3  21
ATOM     21  S   UNL     1     133.524 135.606 152.184  1.00  0.00     0.243 S 
ATOM     22  O   UNL     1     134.505 135.082 153.128  1.00  0.00    -0.207 OA
ATOM     23  O   UNL     1     132.813 134.394 151.782  1.00  0.00    -0.207 OA
BRANCH  21  24
ATOM     24  N   UNL     1     132.485 136.762 152.902  1.00  0.00    -0.195 NA
ATOM     25  C   UNL     1     132.027 136.581 154.344  1.00  0.00     0.074 C 
ATOM     26  C   UNL     1     132.702 138.252 152.661  1.00  0.00     0.103 C 
ATOM     27  C   UNL     1     132.909 137.309 155.347  1.00  0.00     0.020 C 
ATOM     28  C   UNL     1     133.581 138.927 153.701  1.00  0.00     0.017 C 
ATOM     29  C   UNL     1     133.090 138.716 155.043  1.00  0.00     0.003 C 
BRANCH  25  30
ATOM     30  C   UNL     1     130.606 137.075 154.481  1.00  0.00     0.036 C 
BRANCH  30  31
ATOM     31  C   UNL     1     129.665 136.013 153.919  1.00  0.00     0.086 C 
BRANCH  31  32
ATOM     32  N   UNL     1     128.464 136.365 154.102  1.00  0.00    -0.299 NA
ATOM     33  C   UNL     1     127.852 135.487 154.974  1.00  0.00     0.113 C 
ATOM     34  C   UNL     1     128.406 137.668 154.554  1.00  0.00     0.113 C 
ATOM     35  C   UNL     1     126.409 135.900 155.257  1.00  0.00     0.175 C 
ATOM     36  C   UNL     1     126.970 138.098 154.850  1.00  0.00     0.175 C 
ATOM     37  O   UNL     1     126.325 137.210 155.692  1.00  0.00    -0.379 OA
ENDBRANCH  31  32
ENDBRANCH  30  31
ENDBRANCH  25  30
ENDBRANCH  21  24
ENDBRANCH   3  21
TORSDOF 8
ENDMDL
