MODEL 1
REMARK VINA RESULT:    -6.579      0.000      0.000
REMARK INTER + INTRA:         -10.885
REMARK INTER:                  -9.656
REMARK INTRA:                  -1.229
REMARK UNBOUND:                -1.229
REMARK SMILES Cn1nc(C(F)(F)F)cc1C(=O)Nc1ccc(S(=O)(=O)N2CCCC[C@H]2CCN2CCOCC2)cc1
REMARK SMILES IDX 16 1 15 2 17 3 35 4 36 5 14 6 13 7 11 8 12 9 10 11 2 12 3 13
REMARK SMILES IDX 4 14 9 15 1 16 5 17 6 18 7 19 8 20 18 21 19 22 20 23 21 24
REMARK SMILES IDX 26 25 22 26 25 27 23 28 24 29 27 30 28 31 29 32 30 33 34 34
REMARK SMILES IDX 31 35 33 36 32 37
REMARK H PARENT 13 10
ROOT
ATOM      1  C   UNL     1     135.734 136.841 150.936  1.00  0.00     0.024 A 
ATOM      2  C   UNL     1     136.447 137.489 149.755  1.00  0.00     0.027 A 
ATOM      3  C   UNL     1     134.306 136.333 150.768  1.00  0.00     0.082 A 
ATOM      4  C   UNL     1     133.584 136.468 149.436  1.00  0.00     0.024 A 
ATOM      5  C   UNL     1     134.297 137.115 148.257  1.00  0.00     0.027 A 
ATOM      6  C   UNL     1     135.730 137.607 148.414  1.00  0.00     0.041 A 
ENDROOT
BRANCH   6   7
ATOM      7  N   UNL     1     136.386 138.252 147.300  1.00  0.00    -0.321 N 
ATOM      8  C   UNL     1     136.930 137.587 146.134  1.00  0.00     0.273 C 
ATOM      9  O   UNL     1     136.896 136.412 146.000  1.00  0.00    -0.267 OA
ATOM     10  H   UNL     1     136.470 139.232 147.336  1.00  0.00     0.170 HD
BRANCH   8  11
ATOM     11  C   UNL     1     137.515 138.521 145.083  1.00  0.00     0.126 A 
ATOM     12  N   UNL     1     136.905 139.305 144.201  1.00  0.00    -0.262 N 
ATOM     13  N   UNL     1     137.889 139.969 143.480  1.00  0.00    -0.168 NA
ATOM     14  C   UNL     1     139.072 139.580 143.939  1.00  0.00     0.167 A 
ATOM     15  C   UNL     1     138.856 138.687 144.936  1.00  0.00     0.069 A 
ATOM     16  C   UNL     1     135.477 139.453 144.002  1.00  0.00     0.174 C 
BRANCH  14  17
ATOM     17  C   UNL     1     140.448 140.032 143.463  1.00  0.00     0.435 C 
ATOM     18  F   UNL     1     140.334 141.204 142.776  1.00  0.00    -0.164 F 
ATOM     19  F   UNL     1     140.995 139.080 142.656  1.00  0.00    -0.164 F 
ATOM     20  F   UNL     1     141.248 140.222 144.550  1.00  0.00    -0.164 F 
ENDBRANCH  14  17
ENDBRANCH   8  11
ENDBRANCH   6   7
BRANCH   3  21
ATOM     21  S   UNL     1     133.439 135.572 152.161  1.00  0.00     0.243 S 
ATOM     22  O   UNL     1     134.364 135.054 153.164  1.00  0.00    -0.207 OA
ATOM     23  O   UNL     1     132.750 134.358 151.729  1.00  0.00    -0.207 OA
BRANCH  21  24
ATOM     24  N   UNL     1     132.363 136.735 152.809  1.00  0.00    -0.195 NA
ATOM     25  C   UNL     1     131.843 136.581 154.233  1.00  0.00     0.074 C 
ATOM     26  C   UNL     1     132.580 138.221 152.545  1.00  0.00     0.103 C 
ATOM     27  C   UNL     1     132.676 137.336 155.257  1.00  0.00     0.020 C 
ATOM     28  C   UNL     1     133.409 138.924 153.608  1.00  0.00     0.017 C 
ATOM     29  C   UNL     1     132.860 138.738 154.931  1.00  0.00     0.003 C 
BRANCH  25  30
ATOM     30  C   UNL     1     130.415 137.067 154.297  1.00  0.00     0.036 C 
BRANCH  30  31
ATOM     31  C   UNL     1     129.486 135.888 154.022  1.00  0.00     0.086 C 
BRANCH  31  32
ATOM     32  N   UNL     1     128.282 136.249 154.160  1.00  0.00    -0.299 NA
ATOM     33  C   UNL     1     127.645 135.408 155.050  1.00  0.00     0.113 C 
ATOM     34  C   UNL     1     128.216 137.570 154.558  1.00  0.00     0.113 C 
ATOM     35  C   UNL     1     126.197 135.835 155.279  1.00  0.00     0.175 C 
ATOM     36  C   UNL     1     126.775 138.014 154.800  1.00  0.00     0.175 C 
ATOM     37  O   UNL     1     126.106 137.162 155.660  1.00  0.00    -0.379 OA
ENDBRANCH  31  32
ENDBRANCH  30  31
ENDBRANCH  25  30
ENDBRANCH  21  24
ENDBRANCH   3  21
TORSDOF 8
ENDMDL
