MODEL 1
REMARK VINA RESULT:    -4.404      0.000      0.000
REMARK INTER + INTRA:          -6.136
REMARK INTER:                  -4.919
REMARK INTRA:                  -1.217
REMARK UNBOUND:                -1.217
REMARK SMILES C[N+]1(C)CCC(=C(c2ccccc2)c2ccccc2)CC1
REMARK SMILES IDX 1 1 2 2 3 3 4 4 5 5 6 6 7 7 20 8 21 9 8 10 9 11 13 12 10 13
REMARK SMILES IDX 12 14 11 15 14 16 15 17 19 18 16 19 18 20 17 21
REMARK H PARENT
ROOT
ATOM      1  C   UNL     1     133.092 142.160 145.381  1.00  0.00     0.334 C 
ATOM      2  N   UNL     1     132.524 140.828 145.871  1.00  0.00    -0.328 N 
ATOM      3  C   UNL     1     131.005 140.962 145.923  1.00  0.00     0.334 C 
ATOM      4  C   UNL     1     133.107 140.537 147.270  1.00  0.00     0.268 C 
ATOM      5  C   UNL     1     132.770 139.125 147.761  1.00  0.00     0.093 C 
ATOM      6  C   UNL     1     133.226 138.074 146.761  1.00  0.00    -0.051 C 
ATOM      7  C   UNL     1     134.081 137.057 147.052  1.00  0.00    -0.011 C 
ATOM      8  C   UNL     1     132.617 138.320 145.391  1.00  0.00     0.093 C 
ATOM      9  C   UNL     1     132.953 139.725 144.880  1.00  0.00     0.268 C 
ENDROOT
BRANCH   7  10
ATOM     10  C   UNL     1     134.464 136.090 145.997  1.00  0.00    -0.018 A 
ATOM     11  C   UNL     1     135.656 136.260 145.279  1.00  0.00     0.009 A 
ATOM     12  C   UNL     1     133.636 134.998 145.708  1.00  0.00     0.009 A 
ATOM     13  C   UNL     1     136.008 135.352 144.279  1.00  0.00     0.001 A 
ATOM     14  C   UNL     1     133.990 134.093 144.706  1.00  0.00     0.001 A 
ATOM     15  C   UNL     1     135.174 134.272 143.992  1.00  0.00     0.000 A 
ENDBRANCH   7  10
BRANCH   7  16
ATOM     16  C   UNL     1     134.622 136.915 148.423  1.00  0.00    -0.018 A 
ATOM     17  C   UNL     1     135.811 137.560 148.787  1.00  0.00     0.009 A 
ATOM     18  C   UNL     1     133.944 136.134 149.370  1.00  0.00     0.009 A 
ATOM     19  C   UNL     1     136.311 137.432 150.084  1.00  0.00     0.001 A 
ATOM     20  C   UNL     1     134.447 136.010 150.666  1.00  0.00     0.001 A 
ATOM     21  C   UNL     1     135.627 136.660 151.023  1.00  0.00     0.000 A 
ENDBRANCH   7  16
TORSDOF 2
ENDMDL
