MODEL 1
REMARK VINA RESULT:    -3.856      0.000      0.000
REMARK INTER + INTRA:          -5.224
REMARK INTER:                  -5.884
REMARK INTRA:                   0.660
REMARK UNBOUND:                 0.660
REMARK SMILES O=c1c2c(c1=O)N(CCP(=O)(O)O)CCCN2
REMARK SMILES IDX 7 1 4 2 1 3 2 4 3 5 5 6 6 7 17 8 16 10 15 11 8 13 9 14 10 15
REMARK SMILES IDX 11 16 12 17 13 19 14 21
REMARK H PARENT 17 9 12 18 13 20
REMARK Flexibility Score:   20.900
ROOT
ATOM      1  N   UNL     1     126.609 146.637 151.780  1.00  0.00    -0.366 N 
ENDROOT
BRANCH   1   2
ATOM      2  C   UNL     1     125.574 145.879 151.453  1.00  0.00     0.117 C 
ATOM      3  O   UNL     1     123.026 143.976 150.708  1.00  0.00    -0.283 OA
ATOM      4  C   UNL     1     123.973 144.677 150.971  1.00  0.00     0.253 C 
ATOM      5  C   UNL     1     124.692 145.839 150.406  1.00  0.00     0.114 C 
ATOM      6  C   UNL     1     124.942 144.700 152.098  1.00  0.00     0.253 C 
ATOM      7  O   UNL     1     125.081 144.011 153.078  1.00  0.00    -0.283 OA
BRANCH   5   8
ATOM      8  N   UNL     1     124.515 146.529 149.302  1.00  0.00    -0.380 N 
ATOM      9  H   UNL     1     123.584 146.663 148.904  1.00  0.00     0.160 HD
BRANCH   8  10
ATOM     10  C   UNL     1     125.528 147.465 148.819  1.00  0.00     0.115 C 
BRANCH  10  11
ATOM     11  C   UNL     1     126.148 148.324 149.932  1.00  0.00     0.042 CG0
ATOM     12  G   UNL     1     127.189 147.583 150.789  1.00  0.00     0.000 G0
ENDBRANCH  10  11
ENDBRANCH   8  10
ENDBRANCH   5   8
ENDBRANCH   1   2
BRANCH   1  13
ATOM     13  C   UNL     1     127.026 146.819 153.183  1.00  0.00     0.129 C 
BRANCH  13  14
ATOM     14  C   UNL     1     128.528 146.645 153.319  1.00  0.00     0.150 C 
BRANCH  14  15
ATOM     15  P   UNL     1     129.086 146.766 154.994  1.00  0.00     0.327 P 
ATOM     16  O   UNL     1     129.214 148.123 155.598  1.00  0.00    -0.260 OA
BRANCH  15  17
ATOM     17  O   UNL     1     130.453 145.939 155.091  1.00  0.00    -0.324 OA
ATOM     18  H   UNL     1     130.512 145.387 155.893  1.00  0.00     0.221 HD
ENDBRANCH  15  17
BRANCH  15  19
ATOM     19  O   UNL     1     128.111 145.835 155.862  1.00  0.00    -0.324 OA
ATOM     20  H   UNL     1     127.183 146.131 155.824  1.00  0.00     0.221 HD
ENDBRANCH  15  19
ENDBRANCH  14  15
ENDBRANCH  13  14
ENDBRANCH   1  13
BRANCH   1  21
ATOM     21  C   UNL     1     127.189 147.580 150.804  1.00  0.00     0.118 CG0
ATOM     22  G   UNL     1     126.151 148.316 149.939  1.00  0.00     0.000 G0
ENDBRANCH   1  21
TORSDOF 5
ENDMDL
