MODEL 1
REMARK VINA RESULT:    -4.935      0.000      0.000
REMARK INTER + INTRA:          -5.338
REMARK INTER:                  -5.223
REMARK INTRA:                  -0.114
REMARK UNBOUND:                -0.114
REMARK SMILES c1ccc2[nH]c(-c3cscn3)nc2c1
REMARK SMILES IDX 1 1 2 2 3 3 4 4 5 5 6 6 12 7 13 8 14 9 7 11 8 12 11 13 9 14
REMARK SMILES IDX 10 15
REMARK H PARENT 5 10
ROOT
ATOM      1  C   UNL     1     127.120 135.987 155.086  1.00  0.00     0.002 A 
ATOM      2  C   UNL     1     126.632 137.286 155.247  1.00  0.00     0.002 A 
ATOM      3  C   UNL     1     127.440 138.403 155.001  1.00  0.00     0.028 A 
ATOM      4  C   UNL     1     128.749 138.148 154.590  1.00  0.00     0.066 A 
ATOM      5  N   UNL     1     129.797 138.972 154.268  1.00  0.00    -0.337 N 
ATOM      6  C   UNL     1     130.875 138.194 153.926  1.00  0.00     0.158 A 
ATOM      7  N   UNL     1     130.572 136.914 154.013  1.00  0.00    -0.227 NA
ATOM      8  C   UNL     1     129.263 136.868 154.422  1.00  0.00     0.089 A 
ATOM      9  C   UNL     1     128.439 135.761 154.673  1.00  0.00     0.030 A 
ATOM     10  H   UNL     1     129.778 139.979 154.280  1.00  0.00     0.168 HD
ENDROOT
BRANCH   6  11
ATOM     11  C   UNL     1     132.278 138.750 153.492  1.00  0.00     0.116 A 
ATOM     12  C   UNL     1     132.644 138.951 152.175  1.00  0.00     0.098 A 
ATOM     13  N   UNL     1     133.246 139.076 154.426  1.00  0.00    -0.241 NA
ATOM     14  S   UNL     1     134.247 139.567 152.101  1.00  0.00    -0.130 S 
ATOM     15  C   UNL     1     134.321 139.515 153.813  1.00  0.00     0.176 A 
ENDBRANCH   6  11
TORSDOF 1
ENDMDL
