MODEL 1
REMARK VINA RESULT:    -6.865      0.000      0.000
REMARK INTER + INTRA:          -8.189
REMARK INTER:                  -8.471
REMARK INTRA:                   0.282
REMARK UNBOUND:                 0.282
REMARK SMILES N#Cc1ccc(N(Cc2ccc(Br)cc2)n2cnnc2)cc1
REMARK SMILES IDX 8 1 7 2 6 3 1 4 2 5 3 6 4 7 22 8 5 9 21 10 16 11 17 12 20 13
REMARK SMILES IDX 18 14 19 15 9 16 10 17 15 18 11 19 14 20 12 21 13 22
REMARK H PARENT
ROOT
ATOM      1  C   UNL     1     131.810 137.948 154.899  1.00  0.00     0.178 C 
ENDROOT
BRANCH   1   2
ATOM      2  N   UNL     1     130.804 137.005 154.394  1.00  0.00    -0.274 N 
BRANCH   2   3
ATOM      3  C   UNL     1     129.423 137.133 154.614  1.00  0.00     0.058 A 
ATOM      4  N   UNL     1     124.076 137.743 155.456  1.00  0.00    -0.192 NA
ATOM      5  C   UNL     1     125.215 137.619 155.277  1.00  0.00     0.099 C 
ATOM      6  C   UNL     1     126.623 137.460 155.054  1.00  0.00     0.052 A 
ATOM      7  C   UNL     1     127.448 138.572 154.917  1.00  0.00     0.021 A 
ATOM      8  C   UNL     1     127.185 136.188 154.973  1.00  0.00     0.021 A 
ATOM      9  C   UNL     1     128.823 138.406 154.700  1.00  0.00     0.029 A 
ATOM     10  C   UNL     1     128.563 136.032 154.756  1.00  0.00     0.029 A 
ENDBRANCH   2   3
BRANCH   2  11
ATOM     11  N   UNL     1     131.370 135.955 153.671  1.00  0.00    -0.227 N 
ATOM     12  C   UNL     1     132.624 135.429 153.822  1.00  0.00     0.247 A 
ATOM     13  C   UNL     1     130.801 135.231 152.660  1.00  0.00     0.247 A 
ATOM     14  N   UNL     1     132.812 134.463 152.952  1.00  0.00    -0.137 NA
ATOM     15  N   UNL     1     131.655 134.336 152.215  1.00  0.00    -0.137 NA
ENDBRANCH   2  11
ENDBRANCH   1   2
BRANCH   1  16
ATOM     16  C   UNL     1     132.573 138.615 153.771  1.00  0.00    -0.026 A 
ATOM     17  C   UNL     1     131.940 138.870 152.543  1.00  0.00     0.007 A 
ATOM     18  C   UNL     1     133.911 139.003 153.934  1.00  0.00     0.007 A 
ATOM     19  C   UNL     1     132.631 139.497 151.503  1.00  0.00     0.016 A 
ATOM     20  C   UNL     1     134.603 139.629 152.895  1.00  0.00     0.016 A 
ATOM     21  C   UNL     1     133.959 139.873 151.683  1.00  0.00     0.017 A 
ATOM     22  Br  UNL     1     134.894 140.721 150.277  1.00  0.00    -0.051 Br
ENDBRANCH   1  16
TORSDOF 4
ENDMDL
