MODEL 1
REMARK VINA RESULT:    -6.772      0.000      0.000
REMARK INTER + INTRA:          -9.876
REMARK INTER:                  -8.751
REMARK INTRA:                  -1.125
REMARK UNBOUND:                -1.125
REMARK SMILES Cc1cc(Nc2ncnc3ccc(NC4=NC(C)(C)CO4)cc23)ccc1Oc1ccn2ncnc2c1
REMARK SMILES IDX 5 1 4 3 2 4 3 5 26 6 25 7 24 8 1 9 27 10 28 11 29 12 36 13
REMARK SMILES IDX 30 14 35 15 31 16 34 17 32 18 33 19 6 20 7 21 23 22 8 23
REMARK SMILES IDX 22 24 10 25 9 26 13 27 11 28 12 29 14 30 15 31 16 32 21 33
REMARK SMILES IDX 17 34 20 35 18 37 19 38
REMARK H PARENT 5 2 14 36
ROOT
ATOM      1  N   UNL     1     134.745 139.633 149.066  1.00  0.00    -0.340 N 
ATOM      2  H   UNL     1     134.962 140.623 149.104  1.00  0.00     0.168 HD
ENDROOT
BRANCH   1   3
ATOM      3  C   UNL     1     134.470 139.115 150.353  1.00  0.00     0.040 A 
ATOM      4  C   UNL     1     134.413 137.268 151.968  1.00  0.00    -0.006 A 
ATOM      5  C   UNL     1     134.620 137.756 150.666  1.00  0.00     0.033 A 
ATOM      6  C   UNL     1     134.030 138.173 152.965  1.00  0.00     0.130 A 
ATOM      7  C   UNL     1     133.941 139.538 152.691  1.00  0.00     0.049 A 
ATOM      8  C   UNL     1     134.168 140.004 151.395  1.00  0.00     0.030 A 
ATOM      9  C   UNL     1     134.577 135.802 152.246  1.00  0.00     0.048 C 
BRANCH   6  10
ATOM     10  O   UNL     1     133.806 137.770 154.258  1.00  0.00    -0.457 OA
BRANCH  10  11
ATOM     11  C   UNL     1     132.500 137.711 154.746  1.00  0.00     0.132 C 
ATOM     12  C   UNL     1     131.483 136.905 154.064  1.00  0.00     0.067 C 
ATOM     13  C   UNL     1     132.180 138.441 155.833  1.00  0.00     0.096 C 
ATOM     14  C   UNL     1     130.229 136.883 154.553  1.00  0.00     0.119 C 
ATOM     15  C   UNL     1     130.856 138.415 156.350  1.00  0.00     0.158 A 
ATOM     16  N   UNL     1     129.913 137.627 155.687  1.00  0.00    -0.221 N 
ATOM     17  N   UNL     1     130.299 139.011 157.381  1.00  0.00    -0.215 NA
ATOM     18  N   UNL     1     128.724 137.734 156.325  1.00  0.00    -0.155 NA
ATOM     19  C   UNL     1     129.012 138.569 157.324  1.00  0.00     0.247 A 
ENDBRANCH  10  11
ENDBRANCH   6  10
ENDBRANCH   1   3
BRANCH   1  20
ATOM     20  C   UNL     1     134.049 139.376 147.852  1.00  0.00     0.141 A 
ATOM     21  N   UNL     1     132.846 139.944 147.650  1.00  0.00    -0.219 NA
ATOM     22  C   UNL     1     134.658 138.551 146.884  1.00  0.00     0.045 A 
ATOM     23  C   UNL     1     132.260 139.711 146.473  1.00  0.00     0.224 A 
ATOM     24  C   UNL     1     135.905 137.883 147.041  1.00  0.00     0.040 A 
ATOM     25  C   UNL     1     133.942 138.395 145.693  1.00  0.00     0.076 A 
ATOM     26  N   UNL     1     132.756 138.968 145.479  1.00  0.00    -0.236 NA
ATOM     27  C   UNL     1     136.455 137.078 146.032  1.00  0.00     0.043 A 
ATOM     28  C   UNL     1     134.494 137.609 144.694  1.00  0.00     0.031 A 
ATOM     29  C   UNL     1     135.730 136.965 144.848  1.00  0.00     0.028 A 
BRANCH  27  30
ATOM     30  N   UNL     1     137.692 136.464 146.256  1.00  0.00    -0.310 N 
ATOM     31  C   UNL     1     138.855 136.580 145.564  1.00  0.00     0.289 C 
ATOM     32  N   UNL     1     139.173 137.316 144.552  1.00  0.00    -0.225 NA
ATOM     33  O   UNL     1     139.807 135.750 146.073  1.00  0.00    -0.462 OA
ATOM     34  C   UNL     1     140.602 137.043 144.326  1.00  0.00     0.095 C 
ATOM     35  C   UNL     1     140.864 135.775 145.121  1.00  0.00     0.263 C 
ATOM     36  H   UNL     1     137.728 135.784 147.001  1.00  0.00     0.171 HD
ATOM     37  C   UNL     1     140.854 136.850 142.834  1.00  0.00     0.040 C 
ATOM     38  C   UNL     1     141.409 138.230 144.859  1.00  0.00     0.040 C 
ENDBRANCH  27  30
ENDBRANCH   1  20
TORSDOF 5
ENDMDL
