MODEL 1
REMARK VINA RESULT:    -4.375      0.000      0.000
REMARK INTER + INTRA:          -5.014
REMARK INTER:                  -5.014
REMARK INTRA:                   0.000
REMARK UNBOUND:                 0.000
REMARK SMILES C[C@H]1[C@@H](O)O[C@@H]2O[C@@]3(C)CC[C@H]4[C@H](C)CC[C@@H]1[C@@]24OO3
REMARK SMILES IDX 1 1 2 2 3 3 5 4 6 5 7 6 8 7 9 8 12 9 13 10 14 11 15 12 16 13
REMARK SMILES IDX 17 14 18 15 19 16 20 17 4 18 11 20 10 22
REMARK H PARENT 4 19
REMARK Flexibility Score:    0.900
ROOT
ATOM      1  C   UNL     1     134.175 137.889 150.090  1.00  0.00     0.013 C 
ATOM      2  C   UNL     1     132.997 138.033 151.060  1.00  0.00     0.049 C 
ATOM      3  C   UNL     1     132.318 136.690 151.407  1.00  0.00     0.253 C 
ATOM      4  O   UNL     1     132.802 136.209 152.642  1.00  0.00    -0.320 OA
ATOM      5  C   UNL     1     132.321 136.984 153.744  1.00  0.00     0.292 C 
ATOM      6  O   UNL     1     131.006 136.551 154.084  1.00  0.00    -0.315 OA
ATOM      7  C   UNL     1     130.187 137.556 154.684  1.00  0.00     0.201 C 
ATOM      8  C   UNL     1     128.782 136.961 154.769  1.00  0.00     0.079 C 
ATOM      9  C   UNL     1     132.663 139.279 154.850  1.00  0.00     0.033 C 
ATOM     10  C   UNL     1     134.193 139.456 155.139  1.00  0.00    -0.008 C 
ATOM     11  C   UNL     1     134.459 140.495 156.239  1.00  0.00     0.008 C 
ATOM     12  C   UNL     1     135.010 139.832 153.906  1.00  0.00     0.004 C 
ATOM     13  C   UNL     1     134.794 138.837 152.778  1.00  0.00     0.007 C 
ATOM     14  C   UNL     1     133.332 138.874 152.342  1.00  0.00     0.038 C 
ATOM     15  C   UNL     1     132.373 138.513 153.509  1.00  0.00     0.161 C 
ATOM     16  O   UNL     1     131.085 138.884 152.952  1.00  0.00    -0.221 OA
ATOM     17  O   UNL     1     130.062 138.792 153.972  1.00  0.00    -0.200 OA
ENDROOT
BRANCH   3  18
ATOM     18  O   UNL     1     132.582 135.706 150.422  1.00  0.00    -0.368 OA
ATOM     19  H   UNL     1     132.436 134.863 150.880  1.00  0.00     0.213 HD
ENDBRANCH   3  18
BRANCH   9  20
ATOM     20  C   UNL     1     132.053 138.604 156.127  1.00  0.00     0.013 CG0
ATOM     21  G   UNL     1     132.897 137.653 156.979  1.00  0.00     0.000 G0
ENDBRANCH   9  20
BRANCH   7  22
ATOM     22  C   UNL     1     130.668 137.956 156.073  1.00  0.00     0.069 CG0
ATOM     23  G   UNL     1     130.420 136.925 157.176  1.00  0.00     0.000 G0
ENDBRANCH   7  22
TORSDOF 1
ENDMDL
