MODEL 1
REMARK VINA RESULT:    -6.857      0.000      0.000
REMARK INTER + INTRA:         -11.659
REMARK INTER:                 -10.264
REMARK INTRA:                  -1.394
REMARK UNBOUND:                -1.394
REMARK SMILES CC1=C(C)C(=O)C(CCCCC#CCCCC#CCO)=C(C)C1=O
REMARK SMILES IDX 11 1 12 2 10 3 9 4 8 5 7 6 2 7 3 8 23 9 5 10 21 11 24 12
REMARK SMILES IDX 6 13 1 14 4 15 22 16 13 17 14 18 15 19 16 20 17 21 18 22
REMARK SMILES IDX 19 23 20 24
REMARK H PARENT 20 25
ROOT
ATOM      1  C   UNL     1     134.247 140.078 151.335  1.00  0.00     0.089 C 
ATOM      2  C   UNL     1     133.761 139.032 150.423  1.00  0.00    -0.103 C 
ENDROOT
BRANCH   1   3
ATOM      3  C   UNL     1     134.770 139.504 152.653  1.00  0.00     0.013 C 
BRANCH   3   4
ATOM      4  C   UNL     1     133.774 139.510 153.820  1.00  0.00     0.006 C 
BRANCH   4   5
ATOM      5  C   UNL     1     133.628 138.148 154.508  1.00  0.00     0.040 C 
BRANCH   5   6
ATOM      6  C   UNL     1     132.176 137.731 154.614  1.00  0.00     0.007 C 
ATOM      7  C   UNL     1     129.393 137.101 155.131  1.00  0.00     0.003 C 
ATOM      8  C   UNL     1     129.984 138.013 155.924  1.00  0.00     0.003 C 
ATOM      9  C   UNL     1     130.156 136.447 154.029  1.00  0.00     0.185 C 
ATOM     10  C   UNL     1     131.412 138.389 155.712  1.00  0.00     0.185 C 
ATOM     11  C   UNL     1     131.581 136.823 153.820  1.00  0.00     0.004 C 
ATOM     12  O   UNL     1     129.619 135.611 153.309  1.00  0.00    -0.289 OA
ATOM     13  O   UNL     1     131.945 139.232 156.427  1.00  0.00    -0.289 OA
ATOM     14  C   UNL     1     127.966 136.634 155.229  1.00  0.00     0.049 C 
ATOM     15  C   UNL     1     129.339 138.741 157.071  1.00  0.00     0.049 C 
ATOM     16  C   UNL     1     132.234 136.116 152.664  1.00  0.00     0.049 C 
ENDBRANCH   5   6
ENDBRANCH   4   5
ENDBRANCH   3   4
ENDBRANCH   1   3
BRANCH   2  17
ATOM     17  C   UNL     1     133.371 138.176 149.678  1.00  0.00    -0.103 C 
ATOM     18  C   UNL     1     132.886 137.131 148.764  1.00  0.00     0.090 C 
BRANCH  18  19
ATOM     19  C   UNL     1     132.133 137.714 147.569  1.00  0.00     0.026 C 
BRANCH  19  20
ATOM     20  C   UNL     1     132.897 138.852 146.889  1.00  0.00     0.090 C 
ATOM     21  C   UNL     1     131.975 139.890 146.404  1.00  0.00    -0.101 C 
BRANCH  21  22
ATOM     22  C   UNL     1     131.220 140.736 146.006  1.00  0.00    -0.075 C 
ATOM     23  C   UNL     1     130.296 141.764 145.523  1.00  0.00     0.245 C 
BRANCH  23  24
ATOM     24  O   UNL     1     129.088 141.719 146.271  1.00  0.00    -0.384 OA
ATOM     25  H   UNL     1     128.517 141.067 145.832  1.00  0.00     0.211 HD
ENDBRANCH  23  24
ENDBRANCH  21  22
ENDBRANCH  19  20
ENDBRANCH  18  19
ENDBRANCH   2  17
TORSDOF 9
ENDMDL
