MODEL 1
REMARK VINA RESULT:    -5.593      0.000      0.000
REMARK INTER + INTRA:          -5.593
REMARK INTER:                  -5.593
REMARK INTRA:                   0.000
REMARK UNBOUND:                 0.000
REMARK SMILES O=C1NC(=CCl)Nc2sc3c(c21)CCCC3
REMARK SMILES IDX 1 1 2 2 3 3 4 4 5 5 6 6 7 7 8 8 9 9 10 10 11 11 12 12 13 13
REMARK SMILES IDX 14 14 15 15 16 16
REMARK H PARENT 3 17 7 18
ROOT
ATOM      1  O   UNL     1     130.346 139.128 157.227  1.00  0.00    -0.269 OA
ATOM      2  C   UNL     1     130.117 138.370 156.287  1.00  0.00     0.260 C 
ATOM      3  N   UNL     1     128.930 137.661 156.213  1.00  0.00    -0.307 N 
ATOM      4  C   UNL     1     128.602 136.798 155.185  1.00  0.00     0.122 C 
ATOM      5  C   UNL     1     127.419 136.164 155.215  1.00  0.00     0.125 C 
ATOM      6  Cl  UNL     1     126.240 136.331 156.453  1.00  0.00    -0.089 Cl
ATOM      7  N   UNL     1     129.511 136.624 154.160  1.00  0.00    -0.332 N 
ATOM      8  C   UNL     1     130.692 137.285 154.168  1.00  0.00     0.107 A 
ATOM      9  S   UNL     1     131.877 137.152 152.960  1.00  0.00    -0.122 S 
ATOM     10  C   UNL     1     132.893 138.256 153.769  1.00  0.00     0.011 A 
ATOM     11  C   UNL     1     132.349 138.714 154.958  1.00  0.00    -0.019 A 
ATOM     12  C   UNL     1     131.051 138.149 155.182  1.00  0.00     0.078 A 
ATOM     13  C   UNL     1     133.067 139.701 155.831  1.00  0.00     0.037 C 
ATOM     14  C   UNL     1     134.555 139.818 155.460  1.00  0.00     0.005 C 
ATOM     15  C   UNL     1     134.760 139.895 153.941  1.00  0.00     0.006 C 
ATOM     16  C   UNL     1     134.238 138.636 153.233  1.00  0.00     0.047 C 
ATOM     17  H   UNL     1     128.278 137.807 156.972  1.00  0.00     0.171 HD
ATOM     18  H   UNL     1     129.270 135.994 153.403  1.00  0.00     0.169 HD
ENDROOT
TORSDOF 0
ENDMDL
