MODEL 1
REMARK VINA RESULT:    -5.398      0.000      0.000
REMARK INTER + INTRA:         -12.559
REMARK INTER:                  -9.816
REMARK INTRA:                  -2.743
REMARK UNBOUND:                -2.743
REMARK SMILES C/C=C1\[C@H](O[C@H]2O[C@@H](CO)[C@@H](O)[C@@H](O)[C@@H]2O)OC=C(C(=O)OC)[C@H]1CC(=O)OCCc1ccc(O)c(O)c1
REMARK SMILES IDX 26 1 27 2 25 3 24 4 2 5 3 6 4 7 17 8 19 9 18 10 1 11 5 12
REMARK SMILES IDX 6 13 7 14 15 15 8 16 13 17 11 18 16 19 9 21 10 22 14 24
REMARK SMILES IDX 12 26 20 28 21 29 22 30 23 31 28 32 29 33 30 34 31 35 32 36
REMARK SMILES IDX 38 37 33 38 36 39 34 40 37 41 35 43
REMARK H PARENT 16 20 10 23 14 25 12 27 37 42 35 44
ROOT
ATOM      1  C   UNL     1     135.703 138.912 150.834  1.00  0.00     0.306 C 
ATOM      2  O   UNL     1     136.084 140.049 150.590  1.00  0.00    -0.252 OA
ENDROOT
BRANCH   1   3
ATOM      3  C   UNL     1     136.040 137.679 150.025  1.00  0.00     0.136 C 
BRANCH   3   4
ATOM      4  C   UNL     1     134.952 137.328 148.989  1.00  0.00     0.073 C 
ATOM      5  C   UNL     1     136.719 137.534 147.126  1.00  0.00    -0.024 C 
ATOM      6  C   UNL     1     135.444 137.319 147.522  1.00  0.00     0.002 C 
ATOM      7  C   UNL     1     134.295 136.978 146.584  1.00  0.00     0.337 C 
ATOM      8  O   UNL     1     133.756 135.675 146.875  1.00  0.00    -0.468 OA
ATOM      9  C   UNL     1     134.184 136.041 149.224  1.00  0.00     0.080 C 
ATOM     10  C   UNL     1     133.675 135.333 148.201  1.00  0.00     0.202 C 
ATOM     11  C   UNL     1     137.266 137.545 145.731  1.00  0.00     0.036 C 
BRANCH   7  12
ATOM     12  O   UNL     1     133.306 137.996 146.728  1.00  0.00    -0.307 OA
BRANCH  12  13
ATOM     13  C   UNL     1     132.500 138.144 145.566  1.00  0.00     0.286 C 
ATOM     14  O   UNL     1     131.782 139.382 145.635  1.00  0.00    -0.341 OA
ATOM     15  C   UNL     1     133.344 138.044 144.269  1.00  0.00     0.202 C 
ATOM     16  C   UNL     1     132.590 140.572 145.596  1.00  0.00     0.178 C 
ATOM     17  C   UNL     1     133.440 139.404 143.563  1.00  0.00     0.179 C 
ATOM     18  C   UNL     1     133.761 140.485 144.595  1.00  0.00     0.177 C 
BRANCH  15  19
ATOM     19  O   UNL     1     132.775 137.095 143.347  1.00  0.00    -0.385 OA
ATOM     20  H   UNL     1     133.313 137.169 142.536  1.00  0.00     0.211 HD
ENDBRANCH  15  19
BRANCH  16  21
ATOM     21  C   UNL     1     132.989 141.027 147.004  1.00  0.00     0.191 C 
BRANCH  21  22
ATOM     22  O   UNL     1     134.231 140.434 147.380  1.00  0.00    -0.394 OA
ATOM     23  H   UNL     1     134.925 141.004 147.003  1.00  0.00     0.210 HD
ENDBRANCH  21  22
ENDBRANCH  16  21
BRANCH  17  24
ATOM     24  O   UNL     1     134.484 139.328 142.575  1.00  0.00    -0.387 OA
ATOM     25  H   UNL     1     134.066 139.046 141.740  1.00  0.00     0.211 HD
ENDBRANCH  17  24
BRANCH  18  26
ATOM     26  O   UNL     1     135.010 140.149 145.218  1.00  0.00    -0.387 OA
ATOM     27  H   UNL     1     135.448 139.505 144.630  1.00  0.00     0.211 HD
ENDBRANCH  18  26
ENDBRANCH  12  13
ENDBRANCH   7  12
BRANCH   9  28
ATOM     28  C   UNL     1     133.998 135.479 150.577  1.00  0.00     0.337 C 
ATOM     29  O   UNL     1     134.862 134.865 151.181  1.00  0.00    -0.246 OA
BRANCH  28  30
ATOM     30  O   UNL     1     132.753 135.766 151.035  1.00  0.00    -0.466 OA
ATOM     31  C   UNL     1     132.517 135.337 152.375  1.00  0.00     0.282 C 
ENDBRANCH  28  30
ENDBRANCH   9  28
ENDBRANCH   3   4
ENDBRANCH   1   3
BRANCH   1  32
ATOM     32  O   UNL     1     134.950 138.554 151.911  1.00  0.00    -0.465 OA
BRANCH  32  33
ATOM     33  C   UNL     1     134.183 139.605 152.519  1.00  0.00     0.237 C 
BRANCH  33  34
ATOM     34  C   UNL     1     134.194 139.513 154.048  1.00  0.00     0.077 C 
BRANCH  34  35
ATOM     35  C   UNL     1     132.904 138.961 154.608  1.00  0.00    -0.041 A 
ATOM     36  C   UNL     1     131.793 138.770 153.767  1.00  0.00     0.008 A 
ATOM     37  C   UNL     1     132.794 138.651 155.974  1.00  0.00     0.054 A 
ATOM     38  C   UNL     1     130.591 138.274 154.276  1.00  0.00     0.050 A 
ATOM     39  C   UNL     1     131.592 138.157 156.471  1.00  0.00     0.157 A 
ATOM     40  C   UNL     1     130.501 137.971 155.625  1.00  0.00     0.157 A 
BRANCH  39  41
ATOM     41  O   UNL     1     131.432 137.838 157.791  1.00  0.00    -0.504 OA
ATOM     42  H   UNL     1     130.637 137.283 157.873  1.00  0.00     0.293 HD
ENDBRANCH  39  41
BRANCH  40  43
ATOM     43  O   UNL     1     129.327 137.487 156.124  1.00  0.00    -0.504 OA
ATOM     44  H   UNL     1     128.654 138.131 155.828  1.00  0.00     0.293 HD
ENDBRANCH  40  43
ENDBRANCH  34  35
ENDBRANCH  33  34
ENDBRANCH  32  33
ENDBRANCH   1  32
TORSDOF 17
ENDMDL
