MODEL 1
REMARK VINA RESULT:    -5.593      0.000      0.000
REMARK INTER + INTRA:          -8.134
REMARK INTER:                  -7.228
REMARK INTRA:                  -0.906
REMARK UNBOUND:                -0.906
REMARK SMILES C[C@@H](O)[C@H]1C(=O)N2C(C(=O)O)=C(SC3Cn4cnc[n+]4C3)[C@H](C)[C@H]12
REMARK SMILES IDX 4 1 5 2 6 3 7 4 8 5 12 6 22 7 23 8 24 9 2 10 1 11 3 12 9 14
REMARK SMILES IDX 10 15 11 16 13 18 14 19 15 20 21 21 16 22 20 23 17 24 19 25
REMARK SMILES IDX 18 26
REMARK H PARENT 3 13 11 17
ROOT
ATOM      1  C   UNL     1     132.024 138.352 154.800  1.00  0.00     0.131 C 
ATOM      2  C   UNL     1     132.481 136.900 154.624  1.00  0.00     0.235 C 
ATOM      3  O   UNL     1     133.016 136.070 155.320  1.00  0.00    -0.274 OA
ATOM      4  N   UNL     1     132.179 136.912 153.285  1.00  0.00    -0.300 N 
ATOM      5  C   UNL     1     133.169 136.595 152.374  1.00  0.00     0.140 C 
ATOM      6  C   UNL     1     133.612 137.683 151.717  1.00  0.00     0.022 C 
ATOM      7  C   UNL     1     132.926 138.936 152.233  1.00  0.00     0.049 C 
ATOM      8  C   UNL     1     133.859 139.951 152.881  1.00  0.00     0.015 C 
ATOM      9  C   UNL     1     131.902 138.373 153.239  1.00  0.00     0.114 C 
ENDROOT
BRANCH   1  10
ATOM     10  C   UNL     1     130.775 138.585 155.641  1.00  0.00     0.125 C 
ATOM     11  C   UNL     1     129.464 138.400 154.891  1.00  0.00     0.039 C 
BRANCH  10  12
ATOM     12  O   UNL     1     130.804 137.703 156.761  1.00  0.00    -0.393 OA
ATOM     13  H   UNL     1     130.416 138.156 157.533  1.00  0.00     0.210 HD
ENDBRANCH  10  12
ENDBRANCH   1  10
BRANCH   5  14
ATOM     14  C   UNL     1     133.569 135.169 152.283  1.00  0.00     0.353 C 
ATOM     15  O   UNL     1     132.843 134.250 151.944  1.00  0.00    -0.245 OA
BRANCH  14  16
ATOM     16  O   UNL     1     134.855 134.920 152.588  1.00  0.00    -0.477 OA
ATOM     17  H   UNL     1     135.153 134.460 151.769  1.00  0.00     0.297 HD
ENDBRANCH  14  16
ENDBRANCH   5  14
BRANCH   6  18
ATOM     18  S   UNL     1     134.820 137.805 150.492  1.00  0.00    -0.118 SA
BRANCH  18  19
ATOM     19  C   UNL     1     133.873 138.417 149.039  1.00  0.00     0.119 C 
ATOM     20  C   UNL     1     134.826 138.533 147.796  1.00  0.00     0.188 C 
ATOM     21  C   UNL     1     132.815 137.326 148.652  1.00  0.00     0.284 C 
ATOM     22  N   UNL     1     134.679 137.248 147.169  1.00  0.00    -0.180 N 
ATOM     23  N   UNL     1     133.527 136.548 147.677  1.00  0.00    -0.155 N 
ATOM     24  C   UNL     1     135.292 136.386 146.287  1.00  0.00     0.380 A 
ATOM     25  C   UNL     1     133.535 135.319 147.060  1.00  0.00     0.474 A 
ATOM     26  N   UNL     1     134.606 135.182 146.183  1.00  0.00    -0.034 NA
ENDBRANCH  18  19
ENDBRANCH   6  18
TORSDOF 6
ENDMDL
