MODEL 1
REMARK VINA RESULT:    -3.840      0.000      0.000
REMARK INTER + INTRA:          -4.748
REMARK INTER:                  -5.188
REMARK INTRA:                   0.439
REMARK UNBOUND:                 0.439
REMARK SMILES C=C1CC/C=C(\C)CC[C@@H]2[C@@H]1CC2(C)C
REMARK SMILES IDX 9 1 10 2 11 3 12 4 13 5 14 6 15 7 2 8 1 9 3 10 8 12 6 13
REMARK SMILES IDX 5 14 7 15 4 16
REMARK H PARENT
REMARK Flexibility Score:   15.900
ROOT
ATOM      1  C   UNL     1     132.245 135.816 154.007  1.00  0.00     0.009 C 
ENDROOT
BRANCH   1   2
ATOM      2  C   UNL     1     131.989 137.334 153.841  1.00  0.00     0.002 C 
ATOM      3  C   UNL     1     133.086 138.466 153.920  1.00  0.00     0.018 C 
ATOM      4  C   UNL     1     132.007 139.349 154.613  1.00  0.00     0.015 C 
ATOM      5  C   UNL     1     131.285 138.051 155.065  1.00  0.00    -0.031 C 
ATOM      6  C   UNL     1     131.692 137.638 156.484  1.00  0.00     0.011 C 
ATOM      7  C   UNL     1     129.764 138.122 154.937  1.00  0.00     0.011 C 
BRANCH   3   8
ATOM      8  C   UNL     1     133.663 139.121 152.682  1.00  0.00    -0.074 C 
ATOM      9  C   UNL     1     134.820 139.788 152.841  1.00  0.00     0.008 C 
BRANCH   8  10
ATOM     10  C   UNL     1     132.976 139.084 151.324  1.00  0.00     0.035 CG0
ATOM     11  G   UNL     1     133.415 137.919 150.406  1.00  0.00     0.000 G0
ENDBRANCH   8  10
ENDBRANCH   3   8
ENDBRANCH   1   2
BRANCH   1  12
ATOM     12  C   UNL     1     132.514 135.032 152.707  1.00  0.00     0.030 C 
BRANCH  12  13
ATOM     13  C   UNL     1     133.330 135.742 151.652  1.00  0.00    -0.077 C 
ATOM     14  C   UNL     1     132.745 136.661 150.859  1.00  0.00    -0.028 C 
ATOM     15  C   UNL     1     134.817 135.528 151.764  1.00  0.00     0.039 C 
BRANCH  14  16
ATOM     16  C   UNL     1     133.420 137.915 150.396  1.00  0.00     0.032 CG0
ATOM     17  G   UNL     1     132.977 139.073 151.321  1.00  0.00     0.000 G0
ENDBRANCH  14  16
ENDBRANCH  12  13
ENDBRANCH   1  12
TORSDOF 0
ENDMDL
