MODEL 1
REMARK VINA RESULT:    -3.231      0.000      0.000
REMARK INTER + INTRA:          -4.100
REMARK INTER:                  -4.647
REMARK INTRA:                   0.547
REMARK UNBOUND:                 0.547
REMARK SMILES C=CCN1CCc2nc(N)sc2CC1
REMARK SMILES IDX 14 1 4 2 3 3 2 4 1 5 5 6 13 8 12 9 11 10 7 11 9 12 8 13 6 14
REMARK SMILES IDX 10 16
REMARK H PARENT 10 17 10 18
REMARK Flexibility Score:   24.900
ROOT
ATOM      1  C   UNL     1     132.405 136.750 154.527  1.00  0.00     0.090 C 
ENDROOT
BRANCH   1   2
ATOM      2  N   UNL     1     132.115 138.096 155.068  1.00  0.00    -0.299 NA
BRANCH   2   3
ATOM      3  C   UNL     1     130.913 138.078 155.919  1.00  0.00     0.111 C 
BRANCH   3   4
ATOM      4  C   UNL     1     129.615 137.806 155.209  1.00  0.00    -0.019 C 
ATOM      5  C   UNL     1     129.007 138.671 154.385  1.00  0.00     0.005 C 
ENDBRANCH   3   4
ENDBRANCH   2   3
BRANCH   2   6
ATOM      6  C   UNL     1     133.267 138.715 155.760  1.00  0.00     0.091 CG0
ATOM      7  G   UNL     1     134.342 139.293 154.828  1.00  0.00     0.000 G0
ENDBRANCH   2   6
ENDBRANCH   1   2
BRANCH   1   8
ATOM      8  C   UNL     1     133.319 136.736 153.289  1.00  0.00     0.064 C 
BRANCH   8   9
ATOM      9  C   UNL     1     133.535 138.098 152.723  1.00  0.00     0.031 A 
ATOM     10  S   UNL     1     133.234 138.470 151.082  1.00  0.00    -0.102 S 
ATOM     11  C   UNL     1     133.985 139.223 153.382  1.00  0.00     0.058 A 
ATOM     12  C   UNL     1     133.735 140.087 151.365  1.00  0.00     0.180 A 
ATOM     13  N   UNL     1     134.093 140.358 152.596  1.00  0.00    -0.225 NA
BRANCH  11  14
ATOM     14  C   UNL     1     134.348 139.288 154.825  1.00  0.00     0.073 CG0
ATOM     15  G   UNL     1     133.265 138.710 155.747  1.00  0.00     0.000 G0
ENDBRANCH  11  14
BRANCH  12  16
ATOM     16  N   UNL     1     133.733 141.005 150.383  1.00  0.00    -0.375 N 
ATOM     17  H   UNL     1     133.348 140.672 149.507  1.00  0.00     0.159 HD
ATOM     18  H   UNL     1     134.578 141.552 150.273  1.00  0.00     0.159 HD
ENDBRANCH  12  16
ENDBRANCH   8   9
ENDBRANCH   1   8
TORSDOF 3
ENDMDL
