MODEL 1
REMARK VINA RESULT:    -5.740      0.000      0.000
REMARK INTER + INTRA:          -6.099
REMARK INTER:                  -6.411
REMARK INTRA:                   0.311
REMARK UNBOUND:                 0.311
REMARK SMILES CC(C)(C)[C@]1(O)C[C@@H]2OC(=O)C[C@@]23C(=O)O[C@@H]2OC(=O)[C@H](O)[C@]213
REMARK SMILES IDX 5 1 7 2 8 3 9 4 10 5 11 6 12 7 13 8 14 9 15 10 16 11 17 12
REMARK SMILES IDX 18 13 19 14 20 15 21 16 23 17 2 18 1 19 3 20 4 21 6 22 22 24
REMARK H PARENT 6 23 22 25
ROOT
ATOM      1  C   UNL     1     132.481 137.519 154.309  1.00  0.00     0.090 C 
ATOM      2  C   UNL     1     133.324 138.826 154.401  1.00  0.00     0.083 C 
ATOM      3  C   UNL     1     134.431 138.731 153.355  1.00  0.00     0.198 C 
ATOM      4  O   UNL     1     134.684 140.017 152.798  1.00  0.00    -0.461 OA
ATOM      5  C   UNL     1     133.994 140.160 151.628  1.00  0.00     0.307 C 
ATOM      6  O   UNL     1     133.941 141.199 150.993  1.00  0.00    -0.252 OA
ATOM      7  C   UNL     1     133.251 138.899 151.290  1.00  0.00     0.146 C 
ATOM      8  C   UNL     1     133.851 137.894 152.247  1.00  0.00     0.134 C 
ATOM      9  C   UNL     1     134.933 137.066 151.602  1.00  0.00     0.320 C 
ATOM     10  O   UNL     1     135.755 137.476 150.800  1.00  0.00    -0.251 OA
ATOM     11  O   UNL     1     134.896 135.791 152.067  1.00  0.00    -0.424 OA
ATOM     12  C   UNL     1     133.976 135.733 153.154  1.00  0.00     0.383 C 
ATOM     13  O   UNL     1     133.270 134.502 153.173  1.00  0.00    -0.422 OA
ATOM     14  C   UNL     1     132.102 134.675 152.510  1.00  0.00     0.339 C 
ATOM     15  O   UNL     1     131.308 133.785 152.252  1.00  0.00    -0.249 OA
ATOM     16  C   UNL     1     131.952 136.119 152.069  1.00  0.00     0.242 C 
ATOM     17  C   UNL     1     132.957 136.865 152.941  1.00  0.00     0.131 C 
ENDROOT
BRANCH   1  18
ATOM     18  C   UNL     1     130.943 137.816 154.618  1.00  0.00    -0.008 C 
ATOM     19  C   UNL     1     130.762 138.315 156.087  1.00  0.00     0.014 C 
ATOM     20  C   UNL     1     130.070 136.539 154.535  1.00  0.00     0.014 C 
ATOM     21  C   UNL     1     130.328 138.918 153.728  1.00  0.00     0.014 C 
ENDBRANCH   1  18
BRANCH   1  22
ATOM     22  O   UNL     1     132.953 136.662 155.358  1.00  0.00    -0.388 OA
ATOM     23  H   UNL     1     132.728 137.036 156.230  1.00  0.00     0.211 HD
ENDBRANCH   1  22
BRANCH  16  24
ATOM     24  O   UNL     1     132.259 136.249 150.687  1.00  0.00    -0.380 OA
ATOM     25  H   UNL     1     132.680 137.125 150.564  1.00  0.00     0.211 HD
ENDBRANCH  16  24
TORSDOF 3
ENDMDL
