MODEL 1
REMARK VINA RESULT:    -3.744      0.000      0.000
REMARK INTER + INTRA:          -5.331
REMARK INTER:                  -4.838
REMARK INTRA:                  -0.493
REMARK UNBOUND:                -0.493
REMARK SMILES O=[P@]1(N(CCCl)CCCl)NCCCO1
REMARK SMILES IDX 3 1 2 2 1 3 10 4 14 5 11 6 13 7 12 8 4 10 5 11 6 12 7 13
REMARK SMILES IDX 8 14 9 15
REMARK H PARENT 10 9
ROOT
ATOM      1  N   UNL     1     131.563 137.419 154.137  1.00  0.00    -0.217 NA
ENDROOT
BRANCH   1   2
ATOM      2  P   UNL     1     130.056 137.235 154.738  1.00  0.00     0.343 P 
ATOM      3  O   UNL     1     129.381 135.938 154.423  1.00  0.00    -0.256 OA
ATOM      4  N   UNL     1     130.193 137.567 156.333  1.00  0.00    -0.232 NA
ATOM      5  O   UNL     1     129.186 138.480 154.194  1.00  0.00    -0.306 OA
ATOM      6  C   UNL     1     129.219 138.481 156.913  1.00  0.00     0.094 C 
ATOM      7  C   UNL     1     127.895 138.645 154.763  1.00  0.00     0.172 C 
ATOM      8  C   UNL     1     127.855 138.300 156.253  1.00  0.00     0.045 C 
ATOM      9  H   UNL     1     131.125 137.839 156.611  1.00  0.00     0.133 HD
ENDBRANCH   1   2
BRANCH   1  10
ATOM     10  C   UNL     1     132.115 138.763 153.937  1.00  0.00     0.111 C 
BRANCH  10  11
ATOM     11  C   UNL     1     133.158 139.140 154.996  1.00  0.00     0.125 C 
ATOM     12  Cl  UNL     1     134.640 139.794 154.253  1.00  0.00    -0.125 Cl
ENDBRANCH  10  11
ENDBRANCH   1  10
BRANCH   1  13
ATOM     13  C   UNL     1     132.610 136.424 154.392  1.00  0.00     0.111 C 
BRANCH  13  14
ATOM     14  C   UNL     1     133.028 135.609 153.162  1.00  0.00     0.125 C 
ATOM     15  Cl  UNL     1     131.784 134.383 152.790  1.00  0.00    -0.125 Cl
ENDBRANCH  13  14
ENDBRANCH   1  13
TORSDOF 5
ENDMDL
