MODEL 1
REMARK VINA RESULT:    -6.324      0.000      0.000
REMARK INTER + INTRA:          -8.189
REMARK INTER:                  -7.802
REMARK INTRA:                  -0.387
REMARK UNBOUND:                -0.387
REMARK SMILES Oc1cc(O)c2cc(O)c(-c3cc(O)c(O)c(O)c3)[o+]c2c1
REMARK SMILES IDX 2 1 3 2 4 3 6 4 7 5 8 6 10 7 20 8 21 9 22 10 1 11 5 13 11 15
REMARK SMILES IDX 12 16 19 17 13 18 17 19 15 20 14 21 18 23 16 25 9 27
REMARK H PARENT 1 12 5 14 14 22 18 24 16 26 9 28
ROOT
ATOM      1  C   UNL     1     133.819 139.484 152.265  1.00  0.00     0.128 A 
ATOM      2  C   UNL     1     134.634 139.641 153.380  1.00  0.00     0.093 A 
ATOM      3  C   UNL     1     134.106 139.420 154.651  1.00  0.00     0.136 A 
ATOM      4  C   UNL     1     132.764 139.040 154.829  1.00  0.00     0.125 A 
ATOM      5  C   UNL     1     132.196 138.792 156.084  1.00  0.00     0.078 A 
ATOM      6  C   UNL     1     130.880 138.357 156.190  1.00  0.00     0.223 A 
ATOM      7  C   UNL     1     130.080 138.178 155.040  1.00  0.00     0.402 A 
ATOM      8  O   UNL     1     130.595 138.565 153.758  1.00  0.00    -0.202 OA
ATOM      9  C   UNL     1     131.972 138.896 153.680  1.00  0.00     0.368 A 
ATOM     10  C   UNL     1     132.491 139.116 152.403  1.00  0.00     0.162 A 
ENDROOT
BRANCH   1  11
ATOM     11  O   UNL     1     134.383 139.711 151.047  1.00  0.00    -0.507 OA
ATOM     12  H   UNL     1     134.046 140.526 150.634  1.00  0.00     0.293 HD
ENDBRANCH   1  11
BRANCH   3  13
ATOM     13  O   UNL     1     134.898 139.567 155.756  1.00  0.00    -0.507 OA
ATOM     14  H   UNL     1     135.335 140.440 155.747  1.00  0.00     0.293 HD
ENDBRANCH   3  13
BRANCH   7  15
ATOM     15  C   UNL     1     128.691 137.681 154.986  1.00  0.00     0.091 A 
ATOM     16  C   UNL     1     128.470 136.283 154.994  1.00  0.00     0.068 A 
ATOM     17  C   UNL     1     127.557 138.523 154.959  1.00  0.00     0.068 A 
ATOM     18  C   UNL     1     127.180 135.752 154.959  1.00  0.00     0.162 A 
ATOM     19  C   UNL     1     126.274 137.980 154.921  1.00  0.00     0.162 A 
ATOM     20  C   UNL     1     126.084 136.602 154.920  1.00  0.00     0.200 A 
BRANCH  18  21
ATOM     21  O   UNL     1     126.980 134.402 154.962  1.00  0.00    -0.504 OA
ATOM     22  H   UNL     1     126.180 134.166 154.470  1.00  0.00     0.293 HD
ENDBRANCH  18  21
BRANCH  19  23
ATOM     23  O   UNL     1     125.157 138.768 154.889  1.00  0.00    -0.504 OA
ATOM     24  H   UNL     1     124.455 138.379 155.439  1.00  0.00     0.293 HD
ENDBRANCH  19  23
BRANCH  20  25
ATOM     25  O   UNL     1     124.815 136.100 154.885  1.00  0.00    -0.502 OA
ATOM     26  H   UNL     1     124.421 136.428 154.054  1.00  0.00     0.293 HD
ENDBRANCH  20  25
ENDBRANCH   7  15
BRANCH   6  27
ATOM     27  O   UNL     1     130.384 138.107 157.446  1.00  0.00    -0.500 OA
ATOM     28  H   UNL     1     130.790 138.692 158.116  1.00  0.00     0.294 HD
ENDBRANCH   6  27
TORSDOF 7
ENDMDL
