MODEL 1
REMARK VINA RESULT:    -2.481      0.000      0.000
REMARK INTER + INTRA:          -8.447
REMARK INTER:                  -5.236
REMARK INTRA:                  -3.211
REMARK UNBOUND:                -3.211
REMARK SMILES C/C=C1\NC(=O)[C@H]2CSSCC/C=C/[C@H](CC(=O)N[C@H](C(C)C)C(=O)N2)OC(=O)[C@H](C(C)C)NC1=O
REMARK SMILES IDX 24 1 25 2 26 3 7 5 5 6 4 7 6 8 3 10 2 11 1 12 35 13 34 14
REMARK SMILES IDX 36 15 30 17 31 19 32 20 33 21 8 22 9 23 10 24 11 25 12 26
REMARK SMILES IDX 20 28 19 29 17 30 18 31 16 33 15 34 14 35 13 36 27 38 28 39
REMARK SMILES IDX 29 40 21 42 22 43 23 44
REMARK H PARENT 26 4 4 9 34 16 19 32
REMARK Flexibility Score:   79.800
ROOT
ATOM      1  C   UNL     1     133.116 137.855 147.419  1.00  0.00     0.243 C 
ATOM      2  O   UNL     1     132.609 136.777 147.710  1.00  0.00    -0.273 OA
ATOM      3  N   UNL     1     133.844 138.040 146.270  1.00  0.00    -0.342 N 
ATOM      4  H   UNL     1     134.112 139.007 146.044  1.00  0.00     0.164 HD
ENDROOT
BRANCH   3   5
ATOM      5  C   UNL     1     134.027 137.053 145.199  1.00  0.00     0.182 C 
BRANCH   5   6
ATOM      6  C   UNL     1     132.972 137.455 144.138  1.00  0.00     0.247 C 
ATOM      7  N   UNL     1     133.053 136.874 142.900  1.00  0.00    -0.320 N 
ATOM      8  O   UNL     1     132.090 138.268 144.428  1.00  0.00    -0.272 OA
ATOM      9  H   UNL     1     133.538 135.991 142.844  1.00  0.00     0.170 HD
BRANCH   7  10
ATOM     10  C   UNL     1     132.502 137.333 141.712  1.00  0.00     0.102 C 
ATOM     11  C   UNL     1     132.092 136.450 140.777  1.00  0.00     0.001 C 
ATOM     12  C   UNL     1     132.037 134.956 140.852  1.00  0.00     0.038 C 
BRANCH  10  13
ATOM     13  C   UNL     1     132.434 138.806 141.268  1.00  0.00     0.268 C 
ATOM     14  N   UNL     1     131.452 139.596 141.801  1.00  0.00    -0.337 N 
ATOM     15  O   UNL     1     133.277 139.276 140.504  1.00  0.00    -0.268 OA
ATOM     16  H   UNL     1     130.628 139.148 142.184  1.00  0.00     0.164 HD
BRANCH  14  17
ATOM     17  C   UNL     1     131.290 141.018 141.476  1.00  0.00     0.195 CG1
ATOM     18  G   UNL     1     131.609 141.928 142.689  1.00  0.00     0.000 G1
BRANCH  17  19
ATOM     19  C   UNL     1     129.894 141.288 140.859  1.00  0.00     0.017 C 
ATOM     20  C   UNL     1     128.794 140.479 141.551  1.00  0.00     0.010 C 
ATOM     21  C   UNL     1     129.845 141.060 139.347  1.00  0.00     0.010 C 
ENDBRANCH  17  19
ENDBRANCH  14  17
ENDBRANCH  10  13
ENDBRANCH   7  10
ENDBRANCH   5   6
BRANCH   5  22
ATOM     22  C   UNL     1     135.477 136.967 144.694  1.00  0.00     0.116 C 
BRANCH  22  23
ATOM     23  S   UNL     1     136.641 138.045 145.603  1.00  0.00    -0.091 SA
BRANCH  23  24
ATOM     24  S   UNL     1     138.116 138.404 144.224  1.00  0.00    -0.094 SA
BRANCH  24  25
ATOM     25  C   UNL     1     137.633 140.014 143.494  1.00  0.00     0.086 C 
BRANCH  25  26
ATOM     26  C   UNL     1     136.399 139.929 142.586  1.00  0.00     0.039 CG0
ATOM     27  G   UNL     1     135.320 140.932 142.914  1.00  0.00     0.000 G0
ENDBRANCH  25  26
ENDBRANCH  24  25
ENDBRANCH  23  24
ENDBRANCH  22  23
ENDBRANCH   5  22
ENDBRANCH   3   5
BRANCH   1  28
ATOM     28  C   UNL     1     132.998 139.142 148.289  1.00  0.00     0.173 C 
BRANCH  28  29
ATOM     29  N   UNL     1     133.439 140.284 147.471  1.00  0.00    -0.344 N 
ATOM     30  C   UNL     1     132.582 140.947 146.624  1.00  0.00     0.224 C 
ATOM     31  O   UNL     1     131.396 140.638 146.533  1.00  0.00    -0.275 OA
ATOM     32  H   UNL     1     134.433 140.426 147.377  1.00  0.00     0.164 HD
BRANCH  30  33
ATOM     33  C   UNL     1     133.182 142.090 145.836  1.00  0.00     0.149 C 
BRANCH  33  34
ATOM     34  C   UNL     1     133.358 141.795 144.339  1.00  0.00     0.208 C 
BRANCH  34  35
ATOM     35  C   UNL     1     134.472 140.859 143.928  1.00  0.00     0.014 C 
ATOM     36  C   UNL     1     135.338 140.950 142.905  1.00  0.00    -0.027 CG0
ATOM     37  G   UNL     1     136.394 139.915 142.607  1.00  0.00     0.000 G0
ENDBRANCH  34  35
BRANCH  34  38
ATOM     38  O   UNL     1     132.152 141.261 143.757  1.00  0.00    -0.456 OA
BRANCH  38  39
ATOM     39  C   UNL     1     131.621 141.952 142.704  1.00  0.00     0.329 CG1
ATOM     40  O   UNL     1     131.473 143.169 142.701  1.00  0.00    -0.250 OA
ATOM     41  G   UNL     1     131.290 141.026 141.507  1.00  0.00     0.000 G1
ENDBRANCH  38  39
ENDBRANCH  34  38
ENDBRANCH  33  34
ENDBRANCH  30  33
ENDBRANCH  28  29
BRANCH  28  42
ATOM     42  C   UNL     1     133.806 139.046 149.605  1.00  0.00     0.015 C 
ATOM     43  C   UNL     1     135.032 138.135 149.458  1.00  0.00     0.010 C 
ATOM     44  C   UNL     1     134.285 140.431 150.062  1.00  0.00     0.010 C 
ENDBRANCH  28  42
ENDBRANCH   1  28
TORSDOF 2
ENDMDL
