MODEL 1
REMARK VINA RESULT:    -7.768      0.000      0.000
REMARK INTER + INTRA:          -9.882
REMARK INTER:                  -9.131
REMARK INTRA:                  -0.751
REMARK UNBOUND:                -0.751
REMARK SMILES Cc1nnc(-c2ccc3occ(-c4ccc([S@](C)=O)cc4)c3c2)o1
REMARK SMILES IDX 6 1 7 2 8 3 9 4 10 5 11 6 12 7 22 8 23 9 5 10 2 11 3 12
REMARK SMILES IDX 24 13 4 14 1 15 13 16 14 17 21 18 15 19 20 20 16 21 17 22
REMARK SMILES IDX 19 23 18 24
REMARK H PARENT
ROOT
ATOM      1  C   UNL     1     133.358 139.333 152.121  1.00  0.00     0.040 A 
ATOM      2  C   UNL     1     134.454 139.698 152.923  1.00  0.00     0.018 A 
ATOM      3  C   UNL     1     134.414 139.599 154.320  1.00  0.00     0.048 A 
ATOM      4  C   UNL     1     133.230 139.124 154.877  1.00  0.00     0.134 A 
ATOM      5  O   UNL     1     133.001 138.954 156.207  1.00  0.00    -0.464 OA
ATOM      6  C   UNL     1     131.735 138.477 156.332  1.00  0.00     0.205 A 
ATOM      7  C   UNL     1     131.138 138.332 155.095  1.00  0.00     0.028 A 
ATOM      8  C   UNL     1     132.112 138.755 154.139  1.00  0.00     0.029 A 
ATOM      9  C   UNL     1     132.181 138.857 152.735  1.00  0.00     0.026 A 
ENDROOT
BRANCH   1  10
ATOM     10  C   UNL     1     133.408 139.433 150.667  1.00  0.00     0.247 A 
ATOM     11  C   UNL     1     132.915 138.942 148.658  1.00  0.00     0.213 A 
ATOM     12  N   UNL     1     133.790 139.922 148.592  1.00  0.00    -0.113 NA
ATOM     13  O   UNL     1     132.618 138.574 149.943  1.00  0.00    -0.421 OA
ATOM     14  N   UNL     1     134.111 140.240 149.897  1.00  0.00    -0.108 NA
ATOM     15  C   UNL     1     132.235 138.214 147.576  1.00  0.00     0.113 C 
ENDBRANCH   1  10
BRANCH   7  16
ATOM     16  C   UNL     1     129.780 137.858 154.913  1.00  0.00    -0.014 A 
ATOM     17  C   UNL     1     129.529 136.523 154.571  1.00  0.00     0.010 A 
ATOM     18  C   UNL     1     128.700 138.734 155.076  1.00  0.00     0.010 A 
ATOM     19  C   UNL     1     128.217 136.071 154.391  1.00  0.00     0.018 A 
ATOM     20  C   UNL     1     127.388 138.281 154.898  1.00  0.00     0.018 A 
ATOM     21  C   UNL     1     127.142 136.951 154.548  1.00  0.00     0.039 A 
BRANCH  21  22
ATOM     22  S   UNL     1     125.454 136.348 154.313  1.00  0.00     0.050 S 
ATOM     23  O   UNL     1     125.433 134.955 154.868  1.00  0.00    -0.255 OA
ATOM     24  C   UNL     1     124.665 137.425 155.539  1.00  0.00     0.129 C 
ENDBRANCH  21  22
ENDBRANCH   7  16
TORSDOF 3
ENDMDL
