MODEL 1
REMARK VINA RESULT:    -6.799      0.000      0.000
REMARK INTER + INTRA:          -8.568
REMARK INTER:                  -7.991
REMARK INTRA:                  -0.577
REMARK UNBOUND:                -0.577
REMARK SMILES CC1=C(c2ccc(NC3=C(C)C(=O)CC3)cc2)NNC(=O)C1
REMARK SMILES IDX 4 1 5 2 6 3 7 4 16 5 17 6 3 7 2 8 22 9 18 10 20 11 19 12
REMARK SMILES IDX 21 13 1 14 8 17 9 19 10 20 15 21 12 22 14 23 13 24 11 25
REMARK H PARENT 18 15 19 16 8 18
ROOT
ATOM      1  C   UNL     1     128.007 137.758 155.482  1.00  0.00    -0.001 A 
ATOM      2  C   UNL     1     128.730 138.268 156.564  1.00  0.00     0.012 A 
ATOM      3  C   UNL     1     130.130 138.270 156.543  1.00  0.00     0.027 A 
ATOM      4  C   UNL     1     130.837 137.768 155.447  1.00  0.00     0.038 A 
ATOM      5  C   UNL     1     130.099 137.252 154.369  1.00  0.00     0.027 A 
ATOM      6  C   UNL     1     128.701 137.245 154.384  1.00  0.00     0.012 A 
ENDROOT
BRANCH   1   7
ATOM      7  C   UNL     1     126.535 137.741 155.504  1.00  0.00     0.061 C 
ATOM      8  C   UNL     1     125.822 136.600 155.429  1.00  0.00    -0.038 C 
ATOM      9  C   UNL     1     124.313 136.674 155.438  1.00  0.00     0.134 C 
ATOM     10  N   UNL     1     125.928 138.977 155.617  1.00  0.00    -0.298 N 
ATOM     11  C   UNL     1     123.712 138.077 155.421  1.00  0.00     0.242 C 
ATOM     12  N   UNL     1     124.576 139.142 155.326  1.00  0.00    -0.270 N 
ATOM     13  O   UNL     1     122.494 138.261 155.463  1.00  0.00    -0.273 OA
ATOM     14  C   UNL     1     126.382 135.208 155.343  1.00  0.00     0.042 C 
ATOM     15  H   UNL     1     126.527 139.745 155.307  1.00  0.00     0.188 HD
ATOM     16  H   UNL     1     124.173 140.062 155.470  1.00  0.00     0.191 HD
ENDBRANCH   1   7
BRANCH   4  17
ATOM     17  N   UNL     1     132.240 137.706 155.389  1.00  0.00    -0.359 N 
ATOM     18  H   UNL     1     132.630 136.897 155.863  1.00  0.00     0.166 HD
BRANCH  17  19
ATOM     19  C   UNL     1     133.167 138.635 154.966  1.00  0.00     0.022 C 
ATOM     20  C   UNL     1     133.541 138.825 153.689  1.00  0.00     0.011 C 
ATOM     21  C   UNL     1     133.946 139.498 155.930  1.00  0.00     0.062 C 
ATOM     22  C   UNL     1     134.632 139.816 153.708  1.00  0.00     0.160 C 
ATOM     23  C   UNL     1     135.014 140.195 155.100  1.00  0.00     0.087 C 
ATOM     24  O   UNL     1     135.169 140.244 152.696  1.00  0.00    -0.294 OA
ATOM     25  C   UNL     1     133.076 138.223 152.418  1.00  0.00     0.050 C 
ENDBRANCH  17  19
ENDBRANCH   4  17
TORSDOF 3
ENDMDL
