MODEL 1
REMARK VINA RESULT:    -6.717      0.000      0.000
REMARK INTER + INTRA:          -6.362
REMARK INTER:                  -7.502
REMARK INTRA:                   1.140
REMARK UNBOUND:                 1.140
REMARK SMILES Cc1cc(C)c(S(=O)(=O)n2cc(C)cc2C)c(C)c1
REMARK SMILES IDX 7 1 8 2 9 3 6 4 2 5 3 6 19 7 4 8 17 9 1 10 5 11 18 12 10 13
REMARK SMILES IDX 11 14 15 15 12 16 14 17 16 18 13 19
REMARK H PARENT
ROOT
ATOM      1  S   UNL     1     132.602 136.721 154.900  1.00  0.00     0.268 S 
ATOM      2  O   UNL     1     133.143 136.985 156.219  1.00  0.00    -0.201 OA
ATOM      3  O   UNL     1     132.862 135.464 154.224  1.00  0.00    -0.201 OA
ENDROOT
BRANCH   1   4
ATOM      4  C   UNL     1     130.827 137.024 154.842  1.00  0.00     0.094 A 
ATOM      5  C   UNL     1     128.047 137.500 154.676  1.00  0.00    -0.051 A 
ATOM      6  C   UNL     1     128.838 138.216 155.575  1.00  0.00     0.008 A 
ATOM      7  C   UNL     1     128.644 136.518 153.886  1.00  0.00     0.008 A 
ATOM      8  C   UNL     1     130.224 137.995 155.680  1.00  0.00    -0.030 A 
ATOM      9  C   UNL     1     130.027 136.266 153.946  1.00  0.00    -0.030 A 
ATOM     10  C   UNL     1     126.565 137.730 154.616  1.00  0.00     0.044 C 
ATOM     11  C   UNL     1     130.965 138.826 156.693  1.00  0.00     0.046 C 
ATOM     12  C   UNL     1     130.552 135.155 153.074  1.00  0.00     0.046 C 
ENDBRANCH   1   4
BRANCH   1  13
ATOM     13  N   UNL     1     133.278 137.967 153.936  1.00  0.00    -0.246 N 
ATOM     14  C   UNL     1     133.013 138.084 152.593  1.00  0.00     0.107 A 
ATOM     15  C   UNL     1     133.980 139.069 154.379  1.00  0.00     0.031 A 
ATOM     16  C   UNL     1     133.652 139.216 152.126  1.00  0.00    -0.032 A 
ATOM     17  C   UNL     1     134.259 139.831 153.256  1.00  0.00     0.027 A 
ATOM     18  C   UNL     1     134.338 139.334 155.797  1.00  0.00     0.066 C 
ATOM     19  C   UNL     1     133.667 139.718 150.729  1.00  0.00     0.046 C 
ENDBRANCH   1  13
TORSDOF 2
ENDMDL
