MODEL 1
REMARK VINA RESULT:    -3.785      0.000      0.000
REMARK INTER + INTRA:          -5.114
REMARK INTER:                  -4.781
REMARK INTRA:                  -0.333
REMARK UNBOUND:                -0.333
REMARK SMILES CC(=O)Nc1c(I)c(C(=O)O)c(I)c(N(C)C(C)=O)c1I
REMARK SMILES IDX 5 1 6 2 7 3 8 4 12 5 13 6 14 7 20 8 21 9 4 10 2 11 3 12 1 13
REMARK SMILES IDX 9 15 10 16 11 17 15 19 16 20 17 21 19 22 18 23
REMARK H PARENT 4 14 11 18
ROOT
ATOM      1  C   UNL     1     133.656 139.725 147.576  1.00  0.00     0.071 A 
ATOM      2  C   UNL     1     133.701 138.372 147.178  1.00  0.00     0.053 A 
ATOM      3  I   UNL     1     133.824 137.905 145.090  1.00  0.00    -0.041 I 
ATOM      4  C   UNL     1     133.628 137.347 148.139  1.00  0.00     0.090 A 
ATOM      5  C   UNL     1     133.546 137.658 149.509  1.00  0.00     0.054 A 
ATOM      6  I   UNL     1     133.330 136.085 150.951  1.00  0.00    -0.041 I 
ATOM      7  C   UNL     1     133.578 139.007 149.928  1.00  0.00     0.073 A 
ATOM      8  C   UNL     1     133.655 140.036 148.956  1.00  0.00     0.063 A 
ATOM      9  I   UNL     1     134.086 142.057 149.599  1.00  0.00    -0.040 I 
ENDROOT
BRANCH   1  10
ATOM     10  N   UNL     1     133.629 140.728 146.566  1.00  0.00    -0.324 N 
ATOM     11  C   UNL     1     132.424 141.245 146.108  1.00  0.00     0.221 C 
ATOM     12  O   UNL     1     131.313 140.920 146.514  1.00  0.00    -0.275 OA
ATOM     13  C   UNL     1     132.599 142.225 144.978  1.00  0.00     0.114 C 
ATOM     14  H   UNL     1     134.315 140.612 145.827  1.00  0.00     0.169 HD
ENDBRANCH   1  10
BRANCH   4  15
ATOM     15  C   UNL     1     133.631 135.946 147.704  1.00  0.00     0.338 C 
ATOM     16  O   UNL     1     134.605 135.242 147.536  1.00  0.00    -0.246 OA
BRANCH  15  17
ATOM     17  O   UNL     1     132.372 135.529 147.487  1.00  0.00    -0.478 OA
ATOM     18  H   UNL     1     132.048 136.091 146.752  1.00  0.00     0.297 HD
ENDBRANCH  15  17
ENDBRANCH   4  15
BRANCH   7  19
ATOM     19  N   UNL     1     133.559 139.329 151.318  1.00  0.00    -0.314 N 
ATOM     20  C   UNL     1     132.250 139.491 151.943  1.00  0.00     0.153 C 
BRANCH  19  21
ATOM     21  C   UNL     1     134.772 139.504 151.981  1.00  0.00     0.223 C 
ATOM     22  O   UNL     1     135.862 139.506 151.407  1.00  0.00    -0.275 OA
ATOM     23  C   UNL     1     134.692 139.708 153.473  1.00  0.00     0.115 C 
ENDBRANCH  19  21
ENDBRANCH   7  19
TORSDOF 5
ENDMDL
