MODEL 1
REMARK VINA RESULT:    -6.657      0.000      0.000
REMARK INTER + INTRA:          -8.954
REMARK INTER:                  -8.603
REMARK INTRA:                  -0.351
REMARK UNBOUND:                -0.351
REMARK SMILES N=C(N)c1ccc(/N=N/Nc2ccc(C(=N)N)cc2)cc1
REMARK SMILES IDX 8 1 9 2 7 3 4 4 5 5 21 6 6 7 20 8 2 9 1 10 3 11 10 15 11 17
REMARK SMILES IDX 12 18 19 19 13 20 18 21 14 22 15 23 16 24 17 25
REMARK H PARENT 1 12 3 13 3 14 10 16 16 26 17 27 17 28
ROOT
ATOM      1  N   UNL     1     130.322 137.960 155.142  1.00  0.00    -0.133 NA
ATOM      2  N   UNL     1     131.008 136.969 154.828  1.00  0.00    -0.069 NA
ENDROOT
BRANCH   1   3
ATOM      3  C   UNL     1     128.957 137.634 155.067  1.00  0.00     0.087 A 
ATOM      4  C   UNL     1     126.234 136.994 154.858  1.00  0.00     0.016 A 
ATOM      5  C   UNL     1     127.195 135.982 154.784  1.00  0.00     0.014 A 
ATOM      6  C   UNL     1     126.629 138.325 155.027  1.00  0.00     0.014 A 
ATOM      7  C   UNL     1     128.551 136.305 154.886  1.00  0.00     0.031 A 
ATOM      8  C   UNL     1     127.987 138.642 155.126  1.00  0.00     0.031 A 
BRANCH   4   9
ATOM      9  C   UNL     1     124.788 136.667 154.751  1.00  0.00     0.122 C 
ATOM     10  N   UNL     1     123.956 136.917 155.711  1.00  0.00    -0.284 NA
ATOM     11  N   UNL     1     124.285 136.087 153.630  1.00  0.00    -0.384 N 
ATOM     12  H   UNL     1     124.436 137.328 156.518  1.00  0.00     0.189 HD
ATOM     13  H   UNL     1     124.887 135.525 153.044  1.00  0.00     0.158 HD
ATOM     14  H   UNL     1     123.354 135.709 153.768  1.00  0.00     0.158 HD
ENDBRANCH   4   9
ENDBRANCH   1   3
BRANCH   2  15
ATOM     15  N   UNL     1     132.294 137.364 154.912  1.00  0.00    -0.260 N 
ATOM     16  H   UNL     1     132.936 136.655 155.249  1.00  0.00     0.192 HD
BRANCH  15  17
ATOM     17  C   UNL     1     132.808 138.226 153.926  1.00  0.00     0.058 A 
ATOM     18  C   UNL     1     133.988 138.961 154.110  1.00  0.00     0.028 A 
ATOM     19  C   UNL     1     132.189 138.269 152.667  1.00  0.00     0.028 A 
ATOM     20  C   UNL     1     134.509 139.760 153.085  1.00  0.00     0.014 A 
ATOM     21  C   UNL     1     132.701 139.068 151.638  1.00  0.00     0.014 A 
ATOM     22  C   UNL     1     133.860 139.818 151.852  1.00  0.00     0.016 A 
BRANCH  22  23
ATOM     23  C   UNL     1     134.401 140.660 150.753  1.00  0.00     0.122 C 
ATOM     24  N   UNL     1     133.916 141.831 150.485  1.00  0.00    -0.284 NA
ATOM     25  N   UNL     1     135.435 140.225 149.985  1.00  0.00    -0.384 N 
ATOM     26  H   UNL     1     133.164 142.074 151.136  1.00  0.00     0.189 HD
ATOM     27  H   UNL     1     135.860 140.967 149.441  1.00  0.00     0.158 HD
ATOM     28  H   UNL     1     136.084 139.548 150.361  1.00  0.00     0.158 HD
ENDBRANCH  22  23
ENDBRANCH  15  17
ENDBRANCH   2  15
TORSDOF 5
ENDMDL
