MODEL 1
REMARK VINA RESULT:    -6.832      0.000      0.000
REMARK INTER + INTRA:         -11.565
REMARK INTER:                 -10.426
REMARK INTRA:                  -1.139
REMARK UNBOUND:                -1.139
REMARK SMILES CC(C)=CCC/C(C)=C/CNCCNC1[C@H]2C[C@@H]3C[C@@H](C[C@H]1C3)C2
REMARK SMILES IDX 10 1 9 2 7 3 8 4 6 5 5 6 4 7 2 8 1 9 3 10 11 11 12 13 13 14
REMARK SMILES IDX 14 15 15 17 16 18 22 19 17 20 24 21 21 22 23 23 18 24 20 25
REMARK SMILES IDX 19 26
REMARK H PARENT 11 12 14 16
ROOT
ATOM      1  C   UNL     1     134.091 135.207 152.185  1.00  0.00     0.108 C 
ENDROOT
BRANCH   1   2
ATOM      2  C   UNL     1     134.098 136.707 152.097  1.00  0.00    -0.013 C 
ATOM      3  C   UNL     1     134.864 137.503 151.322  1.00  0.00    -0.076 C 
ATOM      4  C   UNL     1     135.891 137.015 150.336  1.00  0.00     0.039 C 
BRANCH   3   5
ATOM      5  C   UNL     1     134.727 139.015 151.416  1.00  0.00     0.034 C 
BRANCH   5   6
ATOM      6  C   UNL     1     133.769 139.505 152.513  1.00  0.00     0.032 C 
BRANCH   6   7
ATOM      7  C   UNL     1     134.475 139.871 153.792  1.00  0.00    -0.028 C 
ATOM      8  C   UNL     1     134.042 139.705 155.056  1.00  0.00    -0.080 C 
ATOM      9  C   UNL     1     132.706 139.138 155.450  1.00  0.00     0.039 C 
ATOM     10  C   UNL     1     134.908 140.111 156.220  1.00  0.00     0.039 C 
ENDBRANCH   6   7
ENDBRANCH   5   6
ENDBRANCH   3   5
ENDBRANCH   1   2
BRANCH   1  11
ATOM     11  N   UNL     1     132.763 134.757 152.597  1.00  0.00    -0.312 NA
ATOM     12  H   UNL     1     132.167 134.705 151.773  1.00  0.00     0.123 HD
BRANCH  11  13
ATOM     13  C   UNL     1     132.134 135.662 153.569  1.00  0.00     0.096 C 
BRANCH  13  14
ATOM     14  C   UNL     1     130.593 135.773 153.488  1.00  0.00     0.096 C 
BRANCH  14  15
ATOM     15  N   UNL     1     130.040 136.533 154.617  1.00  0.00    -0.312 NA
ATOM     16  H   UNL     1     130.710 137.237 154.917  1.00  0.00     0.123 HD
BRANCH  15  17
ATOM     17  C   UNL     1     128.733 137.135 154.321  1.00  0.00     0.060 C 
ATOM     18  C   UNL     1     128.368 138.352 155.215  1.00  0.00     0.007 C 
ATOM     19  C   UNL     1     127.620 136.061 154.477  1.00  0.00     0.007 C 
ATOM     20  C   UNL     1     127.030 138.940 154.721  1.00  0.00     0.008 C 
ATOM     21  C   UNL     1     128.199 137.927 156.688  1.00  0.00     0.008 C 
ATOM     22  C   UNL     1     127.451 135.642 155.952  1.00  0.00     0.008 C 
ATOM     23  C   UNL     1     126.286 136.661 153.986  1.00  0.00     0.008 C 
ATOM     24  C   UNL     1     125.913 137.889 154.832  1.00  0.00    -0.010 C 
ATOM     25  C   UNL     1     127.091 136.867 156.811  1.00  0.00    -0.010 C 
ATOM     26  C   UNL     1     125.767 137.463 156.302  1.00  0.00     0.007 C 
ENDBRANCH  15  17
ENDBRANCH  14  15
ENDBRANCH  13  14
ENDBRANCH  11  13
ENDBRANCH   1  11
TORSDOF 9
ENDMDL
