MODEL 1
REMARK VINA RESULT:    -5.501      0.000      0.000
REMARK INTER + INTRA:          -7.500
REMARK INTER:                  -6.948
REMARK INTRA:                  -0.552
REMARK UNBOUND:                -0.552
REMARK SMILES O=C(O)c1cnn(-c2nc3cc(Cl)c(OC(F)(F)F)cc3[nH]2)c1
REMARK SMILES IDX 8 1 9 2 10 3 11 4 12 5 13 6 14 7 20 8 21 9 22 10 7 12 4 13
REMARK SMILES IDX 5 14 23 15 6 16 2 17 1 18 3 19 15 21 16 22 17 23 18 24 19 25
REMARK H PARENT 22 11 3 20
ROOT
ATOM      1  C   UNL     1     131.415 138.361 153.491  1.00  0.00     0.229 A 
ATOM      2  N   UNL     1     131.112 137.078 153.457  1.00  0.00    -0.211 NA
ATOM      3  C   UNL     1     129.913 136.962 154.112  1.00  0.00     0.092 A 
ATOM      4  C   UNL     1     129.144 135.818 154.371  1.00  0.00     0.055 A 
ATOM      5  C   UNL     1     127.943 135.971 155.069  1.00  0.00     0.085 A 
ATOM      6  Cl  UNL     1     127.007 134.558 155.406  1.00  0.00    -0.080 Cl
ATOM      7  C   UNL     1     127.506 137.238 155.483  1.00  0.00     0.150 A 
ATOM      8  C   UNL     1     128.275 138.388 155.255  1.00  0.00     0.076 A 
ATOM      9  C   UNL     1     129.470 138.204 154.555  1.00  0.00     0.071 A 
ATOM     10  N   UNL     1     130.448 139.079 154.150  1.00  0.00    -0.322 N 
ATOM     11  H   UNL     1     130.447 140.075 154.311  1.00  0.00     0.170 HD
ENDROOT
BRANCH   1  12
ATOM     12  N   UNL     1     132.557 138.944 152.943  1.00  0.00    -0.207 N 
ATOM     13  C   UNL     1     134.077 139.850 151.603  1.00  0.00     0.098 A 
ATOM     14  C   UNL     1     134.526 139.744 152.933  1.00  0.00     0.151 A 
ATOM     15  C   UNL     1     132.799 139.323 151.643  1.00  0.00     0.134 A 
ATOM     16  N   UNL     1     133.617 139.200 153.743  1.00  0.00    -0.173 NA
BRANCH  13  17
ATOM     17  C   UNL     1     134.752 140.375 150.445  1.00  0.00     0.338 C 
ATOM     18  O   UNL     1     134.353 141.301 149.756  1.00  0.00    -0.246 OA
BRANCH  17  19
ATOM     19  O   UNL     1     135.912 139.751 150.150  1.00  0.00    -0.478 OA
ATOM     20  H   UNL     1     136.584 140.267 150.642  1.00  0.00     0.297 HD
ENDBRANCH  17  19
ENDBRANCH  13  17
ENDBRANCH   1  12
BRANCH   7  21
ATOM     21  O   UNL     1     126.341 137.361 156.200  1.00  0.00    -0.404 OA
BRANCH  21  22
ATOM     22  C   UNL     1     125.254 137.712 155.351  1.00  0.00     0.573 C 
ATOM     23  F   UNL     1     125.453 137.301 154.081  1.00  0.00    -0.132 F 
ATOM     24  F   UNL     1     124.129 137.129 155.819  1.00  0.00    -0.132 F 
ATOM     25  F   UNL     1     125.065 139.051 155.359  1.00  0.00    -0.132 F 
ENDBRANCH  21  22
ENDBRANCH   7  21
TORSDOF 5
ENDMDL
