MODEL 1
REMARK VINA RESULT:    -2.438      0.000      0.000
REMARK INTER + INTRA:          -4.880
REMARK INTER:                  -4.575
REMARK INTRA:                  -0.305
REMARK UNBOUND:                -0.305
REMARK SMILES COc1ccc2c(c1)C=C1Cn3c-2c(C2CCCCC2)c2ccc(cc23)C(=O)NS(=O)(=O)N(C)CCOCCN(C)C1=O
REMARK SMILES IDX 27 1 28 2 29 3 24 5 13 6 12 7 14 8 26 9 21 10 25 11 22 12
REMARK SMILES IDX 23 13 6 14 3 15 4 16 8 17 5 18 7 19 2 20 1 21 9 22 10 23
REMARK SMILES IDX 42 25 43 26 40 27 41 28 39 29 11 31 15 33 16 34 20 35 17 36
REMARK SMILES IDX 19 37 18 38 30 39 31 40 32 41 33 42 34 43 35 44 36 45 37 46
REMARK SMILES IDX 38 47
REMARK H PARENT 29 4
REMARK Flexibility Score:   97.800
ROOT
ATOM      1  C   UNL     1     135.893 141.430 143.097  1.00  0.00     0.265 C 
ATOM      2  O   UNL     1     136.056 142.486 142.509  1.00  0.00    -0.268 OA
ATOM      3  N   UNL     1     134.723 141.037 143.751  1.00  0.00    -0.236 N 
ATOM      4  H   UNL     1     134.635 140.094 144.116  1.00  0.00     0.184 HD
ENDROOT
BRANCH   1   5
ATOM      5  C   UNL     1     136.901 140.346 143.027  1.00  0.00     0.042 A 
ATOM      6  C   UNL     1     138.254 135.909 143.005  1.00  0.00     0.054 A 
ATOM      7  N   UNL     1     137.090 136.624 142.755  1.00  0.00    -0.335 N 
ATOM      8  C   UNL     1     139.219 136.838 143.407  1.00  0.00    -0.011 A 
ATOM      9  C   UNL     1     137.300 137.979 142.873  1.00  0.00     0.050 A 
ATOM     10  C   UNL     1     138.621 138.145 143.279  1.00  0.00     0.004 A 
ATOM     11  C   UNL     1     136.424 139.066 142.715  1.00  0.00     0.040 A 
ATOM     12  C   UNL     1     139.093 139.458 143.523  1.00  0.00     0.011 A 
ATOM     13  C   UNL     1     138.224 140.549 143.412  1.00  0.00     0.014 A 
BRANCH   6  14
ATOM     14  C   UNL     1     138.275 134.433 142.923  1.00  0.00     0.006 A 
ATOM     15  C   UNL     1     138.441 131.614 142.762  1.00  0.00     0.119 A 
ATOM     16  C   UNL     1     139.354 132.418 142.084  1.00  0.00     0.047 A 
ATOM     17  C   UNL     1     137.416 132.217 143.491  1.00  0.00     0.055 A 
ATOM     18  C   UNL     1     139.266 133.810 142.155  1.00  0.00     0.015 A 
ATOM     19  C   UNL     1     137.303 133.619 143.557  1.00  0.00    -0.012 A 
BRANCH  15  20
ATOM     20  O   UNL     1     138.647 130.270 142.617  1.00  0.00    -0.497 OA
ATOM     21  C   UNL     1     137.986 129.628 141.534  1.00  0.00     0.278 C 
ENDBRANCH  15  20
BRANCH  19  22
ATOM     22  C   UNL     1     136.127 134.154 144.275  1.00  0.00     0.020 C 
ATOM     23  C   UNL     1     135.445 135.227 143.833  1.00  0.00     0.037 CG0
ATOM     24  G   UNL     1     135.788 135.989 142.588  1.00  0.00     0.000 G0
BRANCH  23  25
ATOM     25  C   UNL     1     134.222 135.668 144.542  1.00  0.00     0.251 C 
ATOM     26  O   UNL     1     133.151 135.631 143.935  1.00  0.00    -0.269 OA
BRANCH  25  27
ATOM     27  N   UNL     1     134.334 136.108 145.850  1.00  0.00    -0.340 N 
ATOM     28  C   UNL     1     133.701 135.477 147.003  1.00  0.00     0.147 C 
BRANCH  27  29
ATOM     29  C   UNL     1     135.329 137.152 146.134  1.00  0.00     0.148 CG1
ATOM     30  G   UNL     1     134.814 138.240 147.084  1.00  0.00     0.000 G1
ENDBRANCH  27  29
ENDBRANCH  25  27
ENDBRANCH  23  25
ENDBRANCH  19  22
ENDBRANCH   6  14
BRANCH   7  31
ATOM     31  C   UNL     1     135.787 135.987 142.576  1.00  0.00     0.164 CG0
ATOM     32  G   UNL     1     135.433 135.239 143.825  1.00  0.00     0.000 G0
ENDBRANCH   7  31
BRANCH   8  33
ATOM     33  C   UNL     1     140.623 136.629 143.953  1.00  0.00     0.022 C 
ATOM     34  C   UNL     1     140.755 135.495 144.982  1.00  0.00     0.008 C 
ATOM     35  C   UNL     1     141.685 136.524 142.849  1.00  0.00     0.008 C 
ATOM     36  C   UNL     1     142.169 135.433 145.559  1.00  0.00     0.001 C 
ATOM     37  C   UNL     1     143.095 136.437 143.434  1.00  0.00     0.001 C 
ATOM     38  C   UNL     1     143.218 135.311 144.456  1.00  0.00     0.000 C 
ENDBRANCH   8  33
ENDBRANCH   1   5
BRANCH   3  39
ATOM     39  S   UNL     1     133.229 141.707 143.556  1.00  0.00     0.303 S 
ATOM     40  O   UNL     1     132.851 141.703 142.167  1.00  0.00    -0.189 OA
ATOM     41  O   UNL     1     133.299 142.940 144.309  1.00  0.00    -0.189 OA
BRANCH  39  42
ATOM     42  N   UNL     1     132.254 140.653 144.443  1.00  0.00    -0.185 NA
ATOM     43  C   UNL     1     132.140 139.262 143.953  1.00  0.00     0.126 C 
BRANCH  42  44
ATOM     44  C   UNL     1     132.326 140.761 145.922  1.00  0.00     0.132 C 
BRANCH  44  45
ATOM     45  C   UNL     1     132.834 139.478 146.581  1.00  0.00     0.177 C 
BRANCH  45  46
ATOM     46  O   UNL     1     134.229 139.315 146.288  1.00  0.00    -0.378 OA
BRANCH  46  47
ATOM     47  C   UNL     1     134.826 138.267 147.063  1.00  0.00     0.181 CG1
ATOM     48  G   UNL     1     135.326 137.152 146.135  1.00  0.00     0.000 G1
ENDBRANCH  46  47
ENDBRANCH  45  46
ENDBRANCH  44  45
ENDBRANCH  42  44
ENDBRANCH  39  42
ENDBRANCH   3  39
TORSDOF 2
ENDMDL
