MODEL 1
REMARK VINA RESULT:    -6.550      0.000      0.000
REMARK INTER + INTRA:         -10.901
REMARK INTER:                  -9.997
REMARK INTRA:                  -0.904
REMARK UNBOUND:                -0.904
REMARK SMILES CC(C)=CCC/C(C)=C/CNCCNC1[C@H]2C[C@@H]3C[C@@H](C[C@H]1C3)C2
REMARK SMILES IDX 10 1 9 2 7 3 8 4 6 5 5 6 4 7 2 8 1 9 3 10 11 11 12 13 13 14
REMARK SMILES IDX 14 15 15 17 16 18 22 19 17 20 24 21 21 22 23 23 18 24 20 25
REMARK SMILES IDX 19 26
REMARK H PARENT 11 12 14 16
ROOT
ATOM      1  C   UNL     1     131.792 137.670 154.034  1.00  0.00     0.108 C 
ENDROOT
BRANCH   1   2
ATOM      2  C   UNL     1     130.407 137.909 154.564  1.00  0.00    -0.013 C 
ATOM      3  C   UNL     1     130.028 138.240 155.816  1.00  0.00    -0.076 C 
ATOM      4  C   UNL     1     130.968 138.464 156.969  1.00  0.00     0.039 C 
BRANCH   3   5
ATOM      5  C   UNL     1     128.551 138.404 156.144  1.00  0.00     0.034 C 
BRANCH   5   6
ATOM      6  C   UNL     1     127.632 138.528 154.920  1.00  0.00     0.032 C 
BRANCH   6   7
ATOM      7  C   UNL     1     126.174 138.621 155.286  1.00  0.00    -0.028 C 
ATOM      8  C   UNL     1     125.243 137.649 155.242  1.00  0.00    -0.080 C 
ATOM      9  C   UNL     1     125.478 136.241 154.768  1.00  0.00     0.039 C 
ATOM     10  C   UNL     1     123.827 137.927 155.676  1.00  0.00     0.039 C 
ENDBRANCH   6   7
ENDBRANCH   5   6
ENDBRANCH   3   5
ENDBRANCH   1   2
BRANCH   1  11
ATOM     11  N   UNL     1     132.249 136.349 154.462  1.00  0.00    -0.312 NA
ATOM     12  H   UNL     1     133.199 136.432 154.817  1.00  0.00     0.123 HD
BRANCH  11  13
ATOM     13  C   UNL     1     132.245 135.367 153.370  1.00  0.00     0.096 C 
BRANCH  13  14
ATOM     14  C   UNL     1     133.535 135.301 152.517  1.00  0.00     0.096 C 
BRANCH  14  15
ATOM     15  N   UNL     1     133.244 135.379 151.080  1.00  0.00    -0.312 NA
ATOM     16  H   UNL     1     132.344 135.832 150.936  1.00  0.00     0.123 HD
BRANCH  15  17
ATOM     17  C   UNL     1     134.303 136.049 150.313  1.00  0.00     0.060 C 
ATOM     18  C   UNL     1     134.606 137.503 150.767  1.00  0.00     0.007 C 
ATOM     19  C   UNL     1     133.915 136.076 148.807  1.00  0.00     0.007 C 
ATOM     20  C   UNL     1     135.802 138.033 149.949  1.00  0.00     0.008 C 
ATOM     21  C   UNL     1     133.396 138.425 150.515  1.00  0.00     0.008 C 
ATOM     22  C   UNL     1     132.708 137.004 148.559  1.00  0.00     0.008 C 
ATOM     23  C   UNL     1     135.115 136.613 147.999  1.00  0.00     0.008 C 
ATOM     24  C   UNL     1     135.460 138.042 148.449  1.00  0.00    -0.010 C 
ATOM     25  C   UNL     1     133.037 138.434 149.019  1.00  0.00    -0.010 C 
ATOM     26  C   UNL     1     134.244 138.953 148.216  1.00  0.00     0.007 C 
ENDBRANCH  15  17
ENDBRANCH  14  15
ENDBRANCH  13  14
ENDBRANCH  11  13
ENDBRANCH   1  11
TORSDOF 9
ENDMDL
