MODEL 1
REMARK VINA RESULT:    -3.541      0.000      0.000
REMARK INTER + INTRA:          -4.124
REMARK INTER:                  -3.955
REMARK INTRA:                  -0.168
REMARK UNBOUND:                -0.168
REMARK SMILES Cl/C=C\C[N+]12CN3CN(CN(C3)C1)C2
REMARK SMILES IDX 1 1 2 2 3 3 4 4 5 5 14 6 13 7 6 8 9 9 11 10 7 11 8 12 10 13
REMARK SMILES IDX 12 14
REMARK H PARENT
ROOT
ATOM      1  Cl  UNL     1     135.368 140.518 155.871  1.00  0.00    -0.093 Cl
ATOM      2  C   UNL     1     134.108 139.476 155.368  1.00  0.00     0.081 C 
ATOM      3  C   UNL     1     133.822 139.185 154.093  1.00  0.00     0.046 C 
ENDROOT
BRANCH   3   4
ATOM      4  C   UNL     1     134.484 139.755 152.876  1.00  0.00     0.296 C 
BRANCH   4   5
ATOM      5  N   UNL     1     134.401 138.912 151.617  1.00  0.00    -0.283 N 
ATOM      6  C   UNL     1     135.475 139.332 150.668  1.00  0.00     0.363 C 
ATOM      7  C   UNL     1     133.104 139.060 150.905  1.00  0.00     0.363 C 
ATOM      8  C   UNL     1     134.607 137.462 151.891  1.00  0.00     0.363 C 
ATOM      9  N   UNL     1     135.435 138.552 149.458  1.00  0.00    -0.230 NA
ATOM     10  N   UNL     1     133.090 138.279 149.693  1.00  0.00    -0.230 NA
ATOM     11  N   UNL     1     134.574 136.701 150.665  1.00  0.00    -0.230 NA
ATOM     12  C   UNL     1     135.633 137.147 149.775  1.00  0.00     0.185 C 
ATOM     13  C   UNL     1     134.149 138.725 148.803  1.00  0.00     0.185 C 
ATOM     14  C   UNL     1     133.287 136.874 150.011  1.00  0.00     0.185 C 
ENDBRANCH   4   5
ENDBRANCH   3   4
TORSDOF 2
ENDMDL
