MODEL 1
REMARK VINA RESULT:    -4.336      0.000      0.000
REMARK INTER + INTRA:          -8.082
REMARK INTER:                  -6.871
REMARK INTRA:                  -1.211
REMARK UNBOUND:                -1.211
REMARK SMILES CCC(CO[N+](=O)[O-])(CO[N+](=O)[O-])CO[N+](=O)[O-]
REMARK SMILES IDX 3 1 2 2 1 3 4 4 5 5 6 6 7 7 8 8 9 9 10 10 11 11 12 12 13 13
REMARK SMILES IDX 14 14 15 15 16 16 17 17 18 18
REMARK H PARENT
ROOT
ATOM      1  C   UNL     1     132.424 137.985 154.600  1.00  0.00     0.041 C 
ENDROOT
BRANCH   1   2
ATOM      2  C   UNL     1     133.604 138.782 153.964  1.00  0.00     0.009 C 
ATOM      3  C   UNL     1     134.365 139.707 154.906  1.00  0.00     0.005 C 
ENDBRANCH   1   2
BRANCH   1   4
ATOM      4  C   UNL     1     132.394 138.227 156.134  1.00  0.00     0.219 C 
BRANCH   4   5
ATOM      5  O   UNL     1     131.322 139.108 156.463  1.00  0.00    -0.313 OA
BRANCH   5   6
ATOM      6  N   UNL     1     130.609 138.697 157.619  1.00  0.00     0.294 N 
ATOM      7  O   UNL     1     131.085 137.687 158.131  1.00  0.00    -0.109 OA
ATOM      8  O   UNL     1     129.636 139.374 157.949  1.00  0.00    -0.109 OA
ENDBRANCH   5   6
ENDBRANCH   4   5
ENDBRANCH   1   4
BRANCH   1   9
ATOM      9  C   UNL     1     132.643 136.471 154.300  1.00  0.00     0.219 C 
BRANCH   9  10
ATOM     10  O   UNL     1     132.702 136.263 152.890  1.00  0.00    -0.313 OA
BRANCH  10  11
ATOM     11  N   UNL     1     133.343 135.046 152.542  1.00  0.00     0.294 N 
ATOM     12  O   UNL     1     132.565 134.220 152.071  1.00  0.00    -0.109 OA
ATOM     13  O   UNL     1     134.554 134.973 152.745  1.00  0.00    -0.109 OA
ENDBRANCH  10  11
ENDBRANCH   9  10
ENDBRANCH   1   9
BRANCH   1  14
ATOM     14  C   UNL     1     131.056 138.402 153.994  1.00  0.00     0.219 C 
BRANCH  14  15
ATOM     15  O   UNL     1     130.141 137.311 154.070  1.00  0.00    -0.313 OA
BRANCH  15  16
ATOM     16  N   UNL     1     129.066 137.558 154.960  1.00  0.00     0.294 N 
ATOM     17  O   UNL     1     128.802 136.677 155.780  1.00  0.00    -0.109 OA
ATOM     18  O   UNL     1     128.537 138.651 154.774  1.00  0.00    -0.109 OA
ENDBRANCH  15  16
ENDBRANCH  14  15
ENDBRANCH   1  14
TORSDOF 10
ENDMDL
