MODEL 1
REMARK VINA RESULT:    -3.378      0.000      0.000
REMARK INTER + INTRA:          -5.288
REMARK INTER:                  -4.760
REMARK INTRA:                  -0.528
REMARK UNBOUND:                -0.528
REMARK SMILES CCN(CC)C(=S)SSC(=S)N(CC)CC
REMARK SMILES IDX 8 1 6 2 3 3 7 4 2 5 1 6 4 7 5 8 9 9 10 10 11 11 12 12 13 13
REMARK SMILES IDX 14 14 15 15 16 16
REMARK H PARENT
ROOT
ATOM      1  S   UNL     1     132.132 137.241 155.201  1.00  0.00    -0.020 SA
ENDROOT
BRANCH   1   2
ATOM      2  C   UNL     1     132.682 136.649 153.620  1.00  0.00     0.147 C 
ATOM      3  N   UNL     1     133.577 137.456 152.883  1.00  0.00    -0.357 N 
ATOM      4  S   UNL     1     132.136 135.119 153.154  1.00  0.00    -0.052 S 
BRANCH   3   5
ATOM      5  C   UNL     1     134.237 138.662 153.419  1.00  0.00     0.114 C 
ATOM      6  C   UNL     1     134.239 139.827 152.438  1.00  0.00     0.027 C 
ENDBRANCH   3   5
BRANCH   3   7
ATOM      7  C   UNL     1     134.024 137.056 151.534  1.00  0.00     0.114 C 
ATOM      8  C   UNL     1     135.314 136.248 151.560  1.00  0.00     0.027 C 
ENDBRANCH   3   7
ENDBRANCH   1   2
BRANCH   1   9
ATOM      9  S   UNL     1     130.552 138.468 154.705  1.00  0.00    -0.020 SA
BRANCH   9  10
ATOM     10  C   UNL     1     129.363 138.112 155.973  1.00  0.00     0.147 C 
ATOM     11  S   UNL     1     129.703 138.712 157.515  1.00  0.00    -0.052 S 
ATOM     12  N   UNL     1     128.249 137.313 155.635  1.00  0.00    -0.357 N 
BRANCH  12  13
ATOM     13  C   UNL     1     127.145 137.103 156.594  1.00  0.00     0.114 C 
ATOM     14  C   UNL     1     125.771 137.223 155.949  1.00  0.00     0.027 C 
ENDBRANCH  12  13
BRANCH  12  15
ATOM     15  C   UNL     1     128.131 136.549 154.378  1.00  0.00     0.114 C 
ATOM     16  C   UNL     1     128.570 135.097 154.504  1.00  0.00     0.027 C 
ENDBRANCH  12  15
ENDBRANCH   9  10
ENDBRANCH   1   9
TORSDOF 7
ENDMDL
