MODEL 1
REMARK VINA RESULT:    -6.466      0.000      0.000
REMARK INTER + INTRA:          -7.992
REMARK INTER:                  -7.600
REMARK INTRA:                  -0.393
REMARK UNBOUND:                -0.393
REMARK SMILES S=C=Nc1cccc(C2(N3CCCCC3)CCCCC2)c1
REMARK SMILES IDX 4 1 5 2 6 3 7 4 8 5 21 6 3 7 1 8 2 9 9 10 16 11 20 12 17 13
REMARK SMILES IDX 19 14 18 15 10 16 11 17 15 18 12 19 14 20 13 21
REMARK H PARENT
ROOT
ATOM      1  C   UNL     1     128.921 136.427 154.741  1.00  0.00     0.074 A 
ATOM      2  C   UNL     1     128.286 137.669 154.792  1.00  0.00     0.029 A 
ATOM      3  C   UNL     1     128.973 138.818 154.415  1.00  0.00     0.003 A 
ATOM      4  C   UNL     1     130.303 138.737 153.993  1.00  0.00     0.006 A 
ATOM      5  C   UNL     1     130.987 137.507 153.934  1.00  0.00    -0.026 A 
ATOM      6  C   UNL     1     130.265 136.363 154.338  1.00  0.00     0.034 A 
ENDROOT
BRANCH   1   7
ATOM      7  N   UNL     1     128.245 135.266 155.154  1.00  0.00    -0.195 NA
ATOM      8  S   UNL     1     125.287 135.571 155.023  1.00  0.00    -0.006 S 
ATOM      9  C   UNL     1     127.078 135.396 155.101  1.00  0.00     0.064 C 
ENDBRANCH   1   7
BRANCH   5  10
ATOM     10  C   UNL     1     132.476 137.410 153.487  1.00  0.00     0.046 C 
ATOM     11  C   UNL     1     132.870 135.898 153.278  1.00  0.00     0.027 C 
ATOM     12  C   UNL     1     132.672 138.030 152.050  1.00  0.00     0.027 C 
ATOM     13  C   UNL     1     134.284 135.688 152.729  1.00  0.00     0.002 C 
ATOM     14  C   UNL     1     134.086 137.861 151.485  1.00  0.00     0.002 C 
ATOM     15  C   UNL     1     134.479 136.395 151.396  1.00  0.00     0.000 C 
BRANCH  10  16
ATOM     16  N   UNL     1     133.406 138.086 154.455  1.00  0.00    -0.294 NA
ATOM     17  C   UNL     1     133.016 138.003 155.873  1.00  0.00     0.085 C 
ATOM     18  C   UNL     1     133.744 139.481 154.113  1.00  0.00     0.085 C 
ATOM     19  C   UNL     1     134.142 138.482 156.796  1.00  0.00     0.016 C 
ATOM     20  C   UNL     1     134.894 140.007 154.976  1.00  0.00     0.016 C 
ATOM     21  C   UNL     1     134.572 139.900 156.458  1.00  0.00     0.003 C 
ENDBRANCH  10  16
ENDBRANCH   5  10
TORSDOF 3
ENDMDL
