MODEL 1
REMARK VINA RESULT:    -2.611      0.000      0.000
REMARK INTER + INTRA:          -4.689
REMARK INTER:                  -4.900
REMARK INTRA:                   0.211
REMARK UNBOUND:                 0.211
REMARK SMILES COc1ccc2c(c1)C=C1Cn3c-2c(C2CCCCC2)c2ccc(cc23)C(=O)NS(=O)(=O)N(C)CCOCCN(C)C1=O
REMARK SMILES IDX 27 1 28 2 29 3 24 5 13 6 12 7 14 8 26 9 21 10 25 11 22 12
REMARK SMILES IDX 23 13 6 14 3 15 4 16 8 17 5 18 7 19 2 20 1 21 9 22 10 23
REMARK SMILES IDX 42 25 43 26 40 27 41 28 39 29 11 31 15 33 16 34 20 35 17 36
REMARK SMILES IDX 19 37 18 38 30 39 31 40 32 41 33 42 34 43 35 44 36 45 37 46
REMARK SMILES IDX 38 47
REMARK H PARENT 29 4
REMARK Flexibility Score:   97.800
ROOT
ATOM      1  C   UNL     1     134.823 141.566 143.488  1.00  0.00     0.265 C 
ATOM      2  O   UNL     1     134.664 142.724 143.837  1.00  0.00    -0.268 OA
ATOM      3  N   UNL     1     133.804 140.635 143.273  1.00  0.00    -0.236 N 
ATOM      4  H   UNL     1     134.018 139.727 142.874  1.00  0.00     0.184 HD
ENDROOT
BRANCH   1   5
ATOM      5  C   UNL     1     136.154 141.060 143.077  1.00  0.00     0.042 A 
ATOM      6  C   UNL     1     139.334 137.746 142.427  1.00  0.00     0.054 A 
ATOM      7  N   UNL     1     137.954 137.828 142.554  1.00  0.00    -0.335 N 
ATOM      8  C   UNL     1     139.832 139.043 142.593  1.00  0.00    -0.011 A 
ATOM      9  C   UNL     1     137.539 139.133 142.684  1.00  0.00     0.050 A 
ATOM     10  C   UNL     1     138.689 139.917 142.711  1.00  0.00     0.004 A 
ATOM     11  C   UNL     1     136.256 139.683 142.840  1.00  0.00     0.040 A 
ATOM     12  C   UNL     1     138.550 141.315 142.887  1.00  0.00     0.011 A 
ATOM     13  C   UNL     1     137.284 141.876 143.086  1.00  0.00     0.014 A 
BRANCH   6  14
ATOM     14  C   UNL     1     140.009 136.441 142.259  1.00  0.00     0.006 A 
ATOM     15  C   UNL     1     141.404 134.007 141.899  1.00  0.00     0.119 A 
ATOM     16  C   UNL     1     141.616 135.080 141.037  1.00  0.00     0.047 A 
ATOM     17  C   UNL     1     140.463 134.133 142.921  1.00  0.00     0.055 A 
ATOM     18  C   UNL     1     140.921 136.279 141.208  1.00  0.00     0.015 A 
ATOM     19  C   UNL     1     139.739 135.329 143.095  1.00  0.00    -0.012 A 
BRANCH  15  20
ATOM     20  O   UNL     1     142.156 132.899 141.627  1.00  0.00    -0.497 OA
ATOM     21  C   UNL     1     141.587 131.635 141.947  1.00  0.00     0.278 C 
ENDBRANCH  15  20
BRANCH  19  22
ATOM     22  C   UNL     1     138.700 135.326 144.145  1.00  0.00     0.020 C 
ATOM     23  C   UNL     1     137.506 135.925 143.974  1.00  0.00     0.037 CG0
ATOM     24  G   UNL     1     137.099 136.650 142.727  1.00  0.00     0.000 G0
BRANCH  23  25
ATOM     25  C   UNL     1     136.467 135.815 145.024  1.00  0.00     0.251 C 
ATOM     26  O   UNL     1     135.739 134.824 145.021  1.00  0.00    -0.269 OA
BRANCH  25  27
ATOM     27  N   UNL     1     136.355 136.833 145.956  1.00  0.00    -0.340 N 
ATOM     28  C   UNL     1     137.391 137.817 146.252  1.00  0.00     0.147 C 
BRANCH  27  29
ATOM     29  C   UNL     1     135.027 137.079 146.538  1.00  0.00     0.148 CG1
ATOM     30  G   UNL     1     134.359 138.354 146.006  1.00  0.00     0.000 G1
ENDBRANCH  27  29
ENDBRANCH  25  27
ENDBRANCH  23  25
ENDBRANCH  19  22
ENDBRANCH   6  14
BRANCH   7  31
ATOM     31  C   UNL     1     137.098 136.653 142.712  1.00  0.00     0.164 CG0
ATOM     32  G   UNL     1     137.493 135.926 143.961  1.00  0.00     0.000 G0
ENDBRANCH   7  31
BRANCH   8  33
ATOM     33  C   UNL     1     141.262 139.543 142.710  1.00  0.00     0.022 C 
ATOM     34  C   UNL     1     141.898 140.001 141.388  1.00  0.00     0.008 C 
ATOM     35  C   UNL     1     141.441 140.588 143.821  1.00  0.00     0.008 C 
ATOM     36  C   UNL     1     143.367 140.378 141.582  1.00  0.00     0.001 C 
ATOM     37  C   UNL     1     142.909 140.979 143.992  1.00  0.00     0.001 C 
ATOM     38  C   UNL     1     143.534 141.430 142.675  1.00  0.00     0.000 C 
ENDBRANCH   8  33
ENDBRANCH   1   5
BRANCH   3  39
ATOM     39  S   UNL     1     132.204 140.977 143.068  1.00  0.00     0.303 S 
ATOM     40  O   UNL     1     131.549 139.920 142.344  1.00  0.00    -0.189 OA
ATOM     41  O   UNL     1     132.200 142.337 142.572  1.00  0.00    -0.189 OA
BRANCH  39  42
ATOM     42  N   UNL     1     131.652 141.041 144.662  1.00  0.00    -0.185 NA
ATOM     43  C   UNL     1     130.291 141.574 144.886  1.00  0.00     0.126 C 
BRANCH  42  44
ATOM     44  C   UNL     1     131.993 139.888 145.533  1.00  0.00     0.132 C 
BRANCH  44  45
ATOM     45  C   UNL     1     133.032 140.242 146.598  1.00  0.00     0.177 C 
BRANCH  45  46
ATOM     46  O   UNL     1     133.676 139.043 147.049  1.00  0.00    -0.378 OA
BRANCH  46  47
ATOM     47  C   UNL     1     134.350 138.357 145.985  1.00  0.00     0.181 CG1
ATOM     48  G   UNL     1     135.023 137.089 146.526  1.00  0.00     0.000 G1
ENDBRANCH  46  47
ENDBRANCH  45  46
ENDBRANCH  44  45
ENDBRANCH  42  44
ENDBRANCH  39  42
ENDBRANCH   3  39
TORSDOF 2
ENDMDL
