MODEL 1
REMARK VINA RESULT:    -4.451      0.000      0.000
REMARK INTER + INTRA:          -5.556
REMARK INTER:                  -5.101
REMARK INTRA:                  -0.455
REMARK UNBOUND:                -0.455
REMARK SMILES NC(=O)c1sc(-c2ccsc2)cc1N
REMARK SMILES IDX 4 1 5 2 6 3 12 4 13 5 2 6 1 7 3 8 14 11 7 14 8 15 11 16 9 17
REMARK SMILES IDX 10 18
REMARK H PARENT 1 9 1 10 14 12 14 13
ROOT
ATOM      1  C   UNL     1     134.096 137.165 152.525  1.00  0.00     0.115 A 
ATOM      2  S   UNL     1     132.835 136.465 153.460  1.00  0.00    -0.128 S 
ATOM      3  C   UNL     1     132.264 137.987 153.981  1.00  0.00     0.038 A 
ATOM      4  C   UNL     1     133.015 139.017 153.459  1.00  0.00     0.046 A 
ATOM      5  C   UNL     1     134.065 138.543 152.628  1.00  0.00     0.056 A 
ENDROOT
BRANCH   1   6
ATOM      6  C   UNL     1     135.019 136.348 151.753  1.00  0.00     0.260 C 
ATOM      7  N   UNL     1     134.919 134.989 151.897  1.00  0.00    -0.365 N 
ATOM      8  O   UNL     1     135.872 136.795 150.987  1.00  0.00    -0.269 OA
ATOM      9  H   UNL     1     134.255 134.567 152.529  1.00  0.00     0.159 HD
ATOM     10  H   UNL     1     135.566 134.410 151.383  1.00  0.00     0.159 HD
ENDBRANCH   1   6
BRANCH   5  11
ATOM     11  N   UNL     1     134.936 139.371 152.017  1.00  0.00    -0.397 N 
ATOM     12  H   UNL     1     134.808 140.385 152.076  1.00  0.00     0.156 HD
ATOM     13  H   UNL     1     135.876 139.092 151.758  1.00  0.00     0.156 HD
ENDBRANCH   5  11
BRANCH   3  14
ATOM     14  C   UNL     1     131.027 138.171 154.942  1.00  0.00     0.002 A 
ATOM     15  C   UNL     1     129.658 138.138 154.537  1.00  0.00     0.021 A 
ATOM     16  C   UNL     1     131.148 138.387 156.299  1.00  0.00     0.074 A 
ATOM     17  C   UNL     1     128.795 138.329 155.594  1.00  0.00     0.065 A 
ATOM     18  S   UNL     1     129.627 138.548 157.071  1.00  0.00    -0.152 S 
ENDBRANCH   3  14
TORSDOF 3
ENDMDL
