MODEL 1
REMARK VINA RESULT:    -6.839      0.000      0.000
REMARK INTER + INTRA:          -9.248
REMARK INTER:                  -8.438
REMARK INTRA:                  -0.811
REMARK UNBOUND:                -0.811
REMARK SMILES CC(C)c1cc(-c2n[nH]c(=O)n2-c2ccc3c(ccn3C)c2)c(O)cc1O
REMARK SMILES IDX 4 1 5 2 6 3 23 4 25 5 26 6 2 7 1 8 3 9 27 10 7 12 8 13 12 14
REMARK SMILES IDX 9 15 10 16 11 17 13 19 14 20 22 21 15 22 17 23 16 24 18 25
REMARK SMILES IDX 20 26 19 27 21 28 24 29
REMARK H PARENT 27 11 9 18 24 30
ROOT
ATOM      1  C   UNL     1     133.560 138.238 156.785  1.00  0.00    -0.003 A 
ATOM      2  C   UNL     1     133.164 137.198 155.925  1.00  0.00     0.023 A 
ATOM      3  C   UNL     1     133.256 137.340 154.534  1.00  0.00     0.062 A 
ATOM      4  C   UNL     1     133.794 138.504 153.984  1.00  0.00     0.130 A 
ATOM      5  C   UNL     1     134.192 139.548 154.818  1.00  0.00     0.093 A 
ATOM      6  C   UNL     1     134.068 139.412 156.204  1.00  0.00     0.122 A 
ENDROOT
BRANCH   1   7
ATOM      7  C   UNL     1     133.417 138.033 158.285  1.00  0.00     0.017 C 
ATOM      8  C   UNL     1     131.956 137.891 158.720  1.00  0.00     0.012 C 
ATOM      9  C   UNL     1     134.268 136.868 158.797  1.00  0.00     0.012 C 
ENDBRANCH   1   7
BRANCH   6  10
ATOM     10  O   UNL     1     134.454 140.442 157.014  1.00  0.00    -0.508 OA
ATOM     11  H   UNL     1     134.847 140.088 157.828  1.00  0.00     0.293 HD
ENDBRANCH   6  10
BRANCH   3  12
ATOM     12  C   UNL     1     132.820 136.214 153.695  1.00  0.00     0.172 C 
ATOM     13  N   UNL     1     133.696 135.420 153.136  1.00  0.00    -0.152 NA
ATOM     14  N   UNL     1     131.511 135.930 153.390  1.00  0.00    -0.243 N 
ATOM     15  N   UNL     1     132.942 134.584 152.375  1.00  0.00    -0.226 N 
ATOM     16  C   UNL     1     131.588 134.880 152.491  1.00  0.00     0.348 C 
ATOM     17  O   UNL     1     130.708 134.260 151.913  1.00  0.00    -0.246 OA
ATOM     18  H   UNL     1     133.338 133.855 151.799  1.00  0.00     0.195 HD
BRANCH  14  19
ATOM     19  C   UNL     1     130.301 136.461 153.909  1.00  0.00     0.053 A 
ATOM     20  C   UNL     1     130.129 137.848 154.028  1.00  0.00     0.029 A 
ATOM     21  C   UNL     1     129.234 135.629 154.291  1.00  0.00     0.037 A 
ATOM     22  C   UNL     1     128.954 138.419 154.538  1.00  0.00     0.029 A 
ATOM     23  C   UNL     1     128.040 136.173 154.813  1.00  0.00     0.002 A 
ATOM     24  C   UNL     1     127.922 137.558 154.929  1.00  0.00     0.048 A 
ATOM     25  C   UNL     1     126.822 135.605 155.276  1.00  0.00     0.028 A 
ATOM     26  N   UNL     1     126.672 137.812 155.452  1.00  0.00    -0.351 N 
ATOM     27  C   UNL     1     126.000 136.638 155.668  1.00  0.00     0.086 A 
ATOM     28  C   UNL     1     126.140 139.129 155.724  1.00  0.00     0.149 C 
ENDBRANCH  14  19
ENDBRANCH   3  12
BRANCH   4  29
ATOM     29  O   UNL     1     133.944 138.615 152.631  1.00  0.00    -0.507 OA
ATOM     30  H   UNL     1     134.886 138.570 152.399  1.00  0.00     0.293 HD
ENDBRANCH   4  29
TORSDOF 5
ENDMDL
