MODEL 1
REMARK VINA RESULT:    -4.818      0.000      0.000
REMARK INTER + INTRA:          -6.367
REMARK INTER:                  -6.367
REMARK INTRA:                  -0.000
REMARK UNBOUND:                -0.000
REMARK SMILES CCC(=O)O[C@]1(C(=O)CCl)[C@@H](C)C[C@H]2[C@@H]3C[C@H](F)C4=CC(=O)C=C[C@]4(C)[C@@]3(F)[C@@H](O)C[C@@]21C
REMARK SMILES IDX 6 1 11 2 12 3 13 4 14 5 15 6 16 7 17 8 18 9 19 10 20 11
REMARK SMILES IDX 21 12 22 13 23 14 24 15 25 16 26 17 27 18 28 19 29 20 31 21
REMARK SMILES IDX 32 22 33 23 5 24 3 25 4 26 2 27 1 28 7 29 8 30 9 31 10 32
REMARK SMILES IDX 30 33
REMARK H PARENT 30 34
ROOT
ATOM      1  C   UNL     1     133.822 138.325 144.127  1.00  0.00     0.179 C 
ATOM      2  C   UNL     1     135.389 138.489 143.940  1.00  0.00     0.039 C 
ATOM      3  C   UNL     1     135.900 139.642 143.078  1.00  0.00     0.012 C 
ATOM      4  C   UNL     1     135.991 138.581 145.367  1.00  0.00     0.012 C 
ATOM      5  C   UNL     1     134.868 138.113 146.284  1.00  0.00     0.006 C 
ATOM      6  C   UNL     1     135.012 138.367 147.797  1.00  0.00     0.037 C 
ATOM      7  C   UNL     1     136.296 137.708 148.330  1.00  0.00     0.049 C 
ATOM      8  C   UNL     1     136.431 137.836 149.842  1.00  0.00     0.194 C 
ATOM      9  F   UNL     1     137.552 137.154 150.214  1.00  0.00    -0.243 F 
ATOM     10  C   UNL     1     135.205 137.303 150.534  1.00  0.00    -0.020 C 
ATOM     11  C   UNL     1     135.297 136.294 151.421  1.00  0.00     0.055 C 
ATOM     12  C   UNL     1     134.105 135.710 152.068  1.00  0.00     0.178 C 
ATOM     13  O   UNL     1     134.199 134.803 152.883  1.00  0.00    -0.290 OA
ATOM     14  C   UNL     1     132.793 136.267 151.689  1.00  0.00     0.048 C 
ATOM     15  C   UNL     1     132.695 137.272 150.809  1.00  0.00    -0.009 C 
ATOM     16  C   UNL     1     133.874 137.950 150.110  1.00  0.00     0.047 C 
ATOM     17  C   UNL     1     133.877 139.413 150.611  1.00  0.00     0.024 C 
ATOM     18  C   UNL     1     133.750 137.811 148.537  1.00  0.00     0.152 C 
ATOM     19  F   UNL     1     133.736 136.450 148.269  1.00  0.00    -0.239 F 
ATOM     20  C   UNL     1     132.428 138.356 147.914  1.00  0.00     0.154 C 
ATOM     21  C   UNL     1     132.385 138.173 146.379  1.00  0.00     0.047 C 
ATOM     22  C   UNL     1     133.612 138.759 145.645  1.00  0.00     0.021 C 
ATOM     23  C   UNL     1     133.611 140.307 145.802  1.00  0.00     0.016 C 
ENDROOT
BRANCH   1  24
ATOM     24  O   UNL     1     133.637 136.875 144.004  1.00  0.00    -0.450 OA
BRANCH  24  25
ATOM     25  C   UNL     1     134.542 136.095 143.356  1.00  0.00     0.306 C 
ATOM     26  O   UNL     1     134.988 136.331 142.244  1.00  0.00    -0.252 OA
BRANCH  25  27
ATOM     27  C   UNL     1     134.911 134.918 144.225  1.00  0.00     0.119 C 
ATOM     28  C   UNL     1     133.807 134.569 145.206  1.00  0.00     0.016 C 
ENDBRANCH  25  27
ENDBRANCH  24  25
ENDBRANCH   1  24
BRANCH   1  29
ATOM     29  C   UNL     1     133.008 139.108 143.047  1.00  0.00     0.191 C 
ATOM     30  O   UNL     1     132.928 140.339 143.052  1.00  0.00    -0.294 OA
BRANCH  29  31
ATOM     31  C   UNL     1     132.295 138.280 141.991  1.00  0.00     0.189 C 
ATOM     32  Cl  UNL     1     133.121 138.419 140.426  1.00  0.00    -0.118 Cl
ENDBRANCH  29  31
ENDBRANCH   1  29
BRANCH  20  33
ATOM     33  O   UNL     1     132.190 139.715 148.254  1.00  0.00    -0.390 OA
ATOM     34  H   UNL     1     132.796 139.952 148.981  1.00  0.00     0.211 HD
ENDBRANCH  20  33
TORSDOF 6
ENDMDL
