MODEL 1
REMARK VINA RESULT:    -4.603      0.000      0.000
REMARK INTER + INTRA:          -7.063
REMARK INTER:                  -6.083
REMARK INTRA:                  -0.981
REMARK UNBOUND:                -0.981
REMARK SMILES COCCO[C@@H]1c2ccn3c(C)c(C)nc3c2N[C@H](c2ccccc2)[C@H]1O
REMARK SMILES IDX 4 1 3 2 2 3 1 4 5 5 6 6 7 7 26 8 8 9 17 10 19 11 9 12 16 13
REMARK SMILES IDX 18 14 10 15 15 16 11 17 13 18 12 20 14 21 27 22 20 24 21 25
REMARK SMILES IDX 25 26 22 27 24 28 23 29
REMARK H PARENT 18 19 27 23
ROOT
ATOM      1  C   UNL     1     136.533 136.859 147.584  1.00  0.00     0.189 C 
ENDROOT
BRANCH   1   2
ATOM      2  C   UNL     1     137.236 137.323 146.308  1.00  0.00     0.188 C 
BRANCH   2   3
ATOM      3  O   UNL     1     136.724 138.595 145.918  1.00  0.00    -0.382 OA
ATOM      4  C   UNL     1     136.861 138.809 144.520  1.00  0.00     0.195 C 
ENDBRANCH   2   3
ENDBRANCH   1   2
BRANCH   1   5
ATOM      5  O   UNL     1     135.528 135.885 147.299  1.00  0.00    -0.368 OA
BRANCH   5   6
ATOM      6  C   UNL     1     134.226 136.185 147.846  1.00  0.00     0.181 C 
ATOM      7  C   UNL     1     133.559 137.197 146.928  1.00  0.00     0.012 C 
ATOM      8  C   UNL     1     134.379 136.646 149.330  1.00  0.00     0.174 C 
ATOM      9  C   UNL     1     133.578 136.935 145.485  1.00  0.00     0.027 C 
ATOM     10  C   UNL     1     132.942 138.296 147.429  1.00  0.00     0.085 C 
ATOM     11  C   UNL     1     133.173 137.514 149.775  1.00  0.00     0.141 C 
ATOM     12  C   UNL     1     132.982 137.797 144.648  1.00  0.00     0.093 C 
ATOM     13  C   UNL     1     132.292 139.204 146.523  1.00  0.00     0.161 A 
ATOM     14  N   UNL     1     132.910 138.542 148.787  1.00  0.00    -0.372 N 
ATOM     15  N   UNL     1     132.343 138.921 145.165  1.00  0.00    -0.302 N 
ATOM     16  N   UNL     1     131.599 140.301 146.760  1.00  0.00    -0.231 NA
ATOM     17  C   UNL     1     131.660 139.932 144.519  1.00  0.00     0.042 A 
ATOM     18  C   UNL     1     131.211 140.768 145.528  1.00  0.00     0.059 A 
ATOM     19  H   UNL     1     132.230 139.261 149.041  1.00  0.00     0.161 HD
ATOM     20  C   UNL     1     131.498 140.007 143.047  1.00  0.00     0.067 C 
ATOM     21  C   UNL     1     130.419 142.015 145.420  1.00  0.00     0.069 C 
BRANCH   8  22
ATOM     22  O   UNL     1     134.507 135.486 150.185  1.00  0.00    -0.388 OA
ATOM     23  H   UNL     1     135.324 135.573 150.702  1.00  0.00     0.211 HD
ENDBRANCH   8  22
BRANCH  11  24
ATOM     24  C   UNL     1     133.391 138.166 151.129  1.00  0.00    -0.023 A 
ATOM     25  C   UNL     1     134.315 139.213 151.294  1.00  0.00     0.006 A 
ATOM     26  C   UNL     1     132.671 137.728 152.252  1.00  0.00     0.006 A 
ATOM     27  C   UNL     1     134.512 139.802 152.543  1.00  0.00     0.000 A 
ATOM     28  C   UNL     1     132.869 138.319 153.502  1.00  0.00     0.000 A 
ATOM     29  C   UNL     1     133.791 139.355 153.646  1.00  0.00     0.000 A 
ENDBRANCH  11  24
ENDBRANCH   5   6
ENDBRANCH   1   5
TORSDOF 6
ENDMDL
