MODEL 1
REMARK VINA RESULT:    -4.379      0.000      0.000
REMARK INTER + INTRA:          -6.180
REMARK INTER:                  -5.275
REMARK INTRA:                  -0.906
REMARK UNBOUND:                -0.906
REMARK SMILES CC1(C)O[C@@H]2[C@@H](CO[C@@]3(COS(N)(=O)=O)OC(C)(C)O[C@@H]23)O1
REMARK SMILES IDX 11 1 10 2 9 3 2 4 4 5 22 6 5 7 6 8 21 9 7 10 20 11 8 12
REMARK SMILES IDX 17 13 16 14 1 15 3 16 18 17 19 18 12 19 14 20 15 21 13 22
REMARK H PARENT 13 23 13 24
ROOT
ATOM      1  O   UNL     1     132.444 135.711 151.363  1.00  0.00    -0.252 OA
ENDROOT
BRANCH   1   2
ATOM      2  C   UNL     1     133.839 136.000 151.443  1.00  0.00     0.253 C 
BRANCH   2   3
ATOM      3  C   UNL     1     134.036 137.469 151.855  1.00  0.00     0.226 C 
ATOM      4  C   UNL     1     133.177 138.312 147.815  1.00  0.00     0.164 C 
ATOM      5  O   UNL     1     132.573 137.881 149.047  1.00  0.00    -0.342 OA
ATOM      6  O   UNL     1     134.298 139.161 148.112  1.00  0.00    -0.342 OA
ATOM      7  C   UNL     1     132.979 138.874 149.998  1.00  0.00     0.187 C 
ATOM      8  C   UNL     1     134.380 139.214 149.543  1.00  0.00     0.179 C 
ATOM      9  C   UNL     1     132.883 138.368 151.423  1.00  0.00     0.215 C 
ATOM     10  C   UNL     1     135.417 138.210 150.044  1.00  0.00     0.199 C 
ATOM     11  O   UNL     1     132.962 139.470 152.345  1.00  0.00    -0.339 OA
ATOM     12  O   UNL     1     135.311 137.980 151.444  1.00  0.00    -0.343 OA
ATOM     13  C   UNL     1     133.475 138.887 153.553  1.00  0.00     0.167 C 
ATOM     14  O   UNL     1     133.966 137.567 153.287  1.00  0.00    -0.314 OA
ATOM     15  C   UNL     1     132.164 139.111 146.998  1.00  0.00     0.075 C 
ATOM     16  C   UNL     1     133.645 137.088 147.037  1.00  0.00     0.075 C 
ATOM     17  C   UNL     1     132.345 138.779 154.571  1.00  0.00     0.075 C 
ATOM     18  C   UNL     1     134.603 139.764 154.083  1.00  0.00     0.075 C 
ENDBRANCH   2   3
ENDBRANCH   1   2
BRANCH   1  19
ATOM     19  S   UNL     1     131.741 135.050 152.657  1.00  0.00     0.333 S 
ATOM     20  O   UNL     1     130.803 136.006 153.191  1.00  0.00    -0.182 OA
ATOM     21  O   UNL     1     131.371 133.696 152.326  1.00  0.00    -0.182 OA
BRANCH  19  22
ATOM     22  N   UNL     1     133.017 134.962 153.730  1.00  0.00    -0.205 NA
ATOM     23  H   UNL     1     133.773 134.404 153.335  1.00  0.00     0.139 HD
ATOM     24  H   UNL     1     133.304 135.895 154.017  1.00  0.00     0.139 HD
ENDBRANCH  19  22
ENDBRANCH   1  19
TORSDOF 4
ENDMDL
