MODEL 1
REMARK VINA RESULT:    -5.550      0.000      0.000
REMARK INTER + INTRA:          -5.550
REMARK INTER:                  -5.550
REMARK INTRA:                   0.000
REMARK UNBOUND:                 0.000
REMARK SMILES C1=C2CCCN[C@H]2[C@@H]2C[C@H]1[C@H]1CCCCN1C2
REMARK SMILES IDX 1 1 2 2 3 3 4 4 5 5 6 6 7 7 8 8 9 9 10 10 11 11 12 12 13 13
REMARK SMILES IDX 14 14 15 15 16 16 17 17
REMARK H PARENT 6 18
ROOT
ATOM      1  C   UNL     1     132.850 136.582 154.859  1.00  0.00    -0.021 C 
ATOM      2  C   UNL     1     133.171 136.622 153.549  1.00  0.00    -0.057 C 
ATOM      3  C   UNL     1     133.538 135.384 152.774  1.00  0.00     0.033 C 
ATOM      4  C   UNL     1     134.285 135.762 151.498  1.00  0.00     0.020 C 
ATOM      5  C   UNL     1     133.479 136.747 150.644  1.00  0.00     0.082 C 
ATOM      6  N   UNL     1     132.646 137.684 151.401  1.00  0.00    -0.310 NA
ATOM      7  C   UNL     1     133.141 137.919 152.756  1.00  0.00     0.084 C 
ATOM      8  C   UNL     1     132.313 139.003 153.500  1.00  0.00     0.025 C 
ATOM      9  C   UNL     1     132.881 139.087 154.930  1.00  0.00     0.016 C 
ATOM     10  C   UNL     1     132.436 137.811 155.657  1.00  0.00     0.029 C 
ATOM     11  C   UNL     1     130.886 137.855 155.840  1.00  0.00     0.063 C 
ATOM     12  C   UNL     1     130.522 138.358 157.254  1.00  0.00     0.020 C 
ATOM     13  C   UNL     1     129.059 138.804 157.381  1.00  0.00     0.003 C 
ATOM     14  C   UNL     1     128.199 138.231 156.262  1.00  0.00     0.016 C 
ATOM     15  C   UNL     1     128.763 138.580 154.877  1.00  0.00     0.085 C 
ATOM     16  N   UNL     1     130.220 138.755 154.877  1.00  0.00    -0.299 NA
ATOM     17  C   UNL     1     130.792 138.666 153.527  1.00  0.00     0.090 C 
ATOM     18  H   UNL     1     132.566 138.564 150.894  1.00  0.00     0.123 HD
ENDROOT
TORSDOF 0
ENDMDL
