MODEL 1
REMARK VINA RESULT:    -6.626      0.000      0.000
REMARK INTER + INTRA:          -6.626
REMARK INTER:                  -6.626
REMARK INTRA:                   0.000
REMARK UNBOUND:                 0.000
REMARK SMILES FC1(F)C(F)(F)C(F)(F)C2(F)C(F)(F)C(F)(F)C(F)(F)C(F)(F)C2(F)C1(F)F
REMARK SMILES IDX 5 1 4 2 6 3 2 4 1 5 3 6 26 7 27 8 28 9 24 10 25 11 21 12
REMARK SMILES IDX 22 13 23 14 18 15 19 16 20 17 15 18 16 19 17 20 12 21 13 22
REMARK SMILES IDX 14 23 10 24 11 25 7 26 8 27 9 28
REMARK H PARENT
ROOT
ATOM      1  F   UNL     1     133.123 137.141 148.894  1.00  0.00    -0.192 F 
ATOM      2  C   UNL     1     134.065 136.400 149.540  1.00  0.00     0.382 C 
ATOM      3  F   UNL     1     134.224 135.272 148.805  1.00  0.00    -0.192 F 
ATOM      4  C   UNL     1     135.329 137.197 149.640  1.00  0.00     0.382 C 
ATOM      5  F   UNL     1     136.219 136.521 150.417  1.00  0.00    -0.192 F 
ATOM      6  F   UNL     1     135.931 137.362 148.436  1.00  0.00    -0.192 F 
ATOM      7  C   UNL     1     135.015 138.558 150.267  1.00  0.00     0.359 C 
ATOM      8  F   UNL     1     136.196 139.066 150.698  1.00  0.00    -0.195 F 
ATOM      9  F   UNL     1     134.582 139.431 149.315  1.00  0.00    -0.195 F 
ATOM     10  C   UNL     1     133.943 138.524 151.375  1.00  0.00     0.295 C 
ATOM     11  F   UNL     1     132.713 138.721 150.795  1.00  0.00    -0.226 F 
ATOM     12  C   UNL     1     134.168 139.631 152.426  1.00  0.00     0.359 C 
ATOM     13  F   UNL     1     135.473 139.982 152.542  1.00  0.00    -0.195 F 
ATOM     14  F   UNL     1     133.540 140.751 151.970  1.00  0.00    -0.195 F 
ATOM     15  C   UNL     1     133.683 139.281 153.835  1.00  0.00     0.382 C 
ATOM     16  F   UNL     1     134.624 138.540 154.481  1.00  0.00    -0.192 F 
ATOM     17  F   UNL     1     133.524 140.409 154.570  1.00  0.00    -0.192 F 
ATOM     18  C   UNL     1     132.420 138.484 153.734  1.00  0.00     0.382 C 
ATOM     19  F   UNL     1     131.817 138.319 154.939  1.00  0.00    -0.192 F 
ATOM     20  F   UNL     1     131.530 139.160 152.958  1.00  0.00    -0.192 F 
ATOM     21  C   UNL     1     132.733 137.123 153.108  1.00  0.00     0.359 C 
ATOM     22  F   UNL     1     131.551 136.616 152.676  1.00  0.00    -0.195 F 
ATOM     23  F   UNL     1     133.167 136.250 154.060  1.00  0.00    -0.195 F 
ATOM     24  C   UNL     1     133.805 137.157 152.000  1.00  0.00     0.295 C 
ATOM     25  F   UNL     1     135.035 136.960 152.580  1.00  0.00    -0.226 F 
ATOM     26  C   UNL     1     133.581 136.050 150.949  1.00  0.00     0.359 C 
ATOM     27  F   UNL     1     134.209 134.930 151.405  1.00  0.00    -0.195 F 
ATOM     28  F   UNL     1     132.275 135.699 150.832  1.00  0.00    -0.195 F 
ENDROOT
TORSDOF 0
ENDMDL
