MODEL 1
REMARK VINA RESULT:    -6.925      0.000      0.000
REMARK INTER + INTRA:          -8.681
REMARK INTER:                  -8.139
REMARK INTRA:                  -0.542
REMARK UNBOUND:                -0.542
REMARK SMILES Clc1ccc(C(c2ccc(Cl)cc2)C(Cl)(Cl)Cl)cc1
REMARK SMILES IDX 6 1 5 2 2 3 3 4 19 5 4 6 18 7 1 8 7 9 8 10 13 11 9 12 12 13
REMARK SMILES IDX 10 14 11 15 14 16 15 17 16 18 17 19
REMARK H PARENT
ROOT
ATOM      1  C   UNL     1     131.891 136.504 154.190  1.00  0.00     0.101 C 
ENDROOT
BRANCH   1   2
ATOM      2  C   UNL     1     130.425 136.959 154.296  1.00  0.00    -0.036 A 
ATOM      3  C   UNL     1     127.732 137.741 154.490  1.00  0.00     0.041 A 
ATOM      4  C   UNL     1     128.054 136.392 154.378  1.00  0.00     0.021 A 
ATOM      5  C   UNL     1     128.737 138.704 154.511  1.00  0.00     0.021 A 
ATOM      6  C   UNL     1     129.393 136.003 154.284  1.00  0.00     0.006 A 
ATOM      7  C   UNL     1     130.076 138.315 154.416  1.00  0.00     0.006 A 
ATOM      8  Cl  UNL     1     126.084 138.221 154.608  1.00  0.00    -0.084 Cl
ENDBRANCH   1   2
BRANCH   1   9
ATOM      9  C   UNL     1     132.846 137.638 154.606  1.00  0.00    -0.036 A 
ATOM     10  C   UNL     1     133.438 138.538 153.704  1.00  0.00     0.006 A 
ATOM     11  C   UNL     1     133.115 137.811 155.980  1.00  0.00     0.006 A 
ATOM     12  C   UNL     1     134.284 139.556 154.158  1.00  0.00     0.021 A 
ATOM     13  C   UNL     1     133.959 138.829 156.432  1.00  0.00     0.021 A 
ATOM     14  C   UNL     1     134.542 139.697 155.517  1.00  0.00     0.041 A 
ATOM     15  Cl  UNL     1     135.581 140.953 156.068  1.00  0.00    -0.084 Cl
ENDBRANCH   1   9
BRANCH   1  16
ATOM     16  C   UNL     1     132.211 135.674 152.892  1.00  0.00     0.201 C 
ATOM     17  Cl  UNL     1     133.988 135.301 152.799  1.00  0.00    -0.083 Cl
ATOM     18  Cl  UNL     1     131.839 136.623 151.399  1.00  0.00    -0.083 Cl
ATOM     19  Cl  UNL     1     131.352 134.097 152.778  1.00  0.00    -0.083 Cl
ENDBRANCH   1  16
TORSDOF 3
ENDMDL
