MODEL 1
REMARK VINA RESULT:    -4.731      0.000      0.000
REMARK INTER + INTRA:          -5.088
REMARK INTER:                  -5.008
REMARK INTRA:                  -0.080
REMARK UNBOUND:                -0.080
REMARK SMILES CC1(NC2=NS(=O)(=O)c3sc(Cl)cc3N2)CC1
REMARK SMILES IDX 3 1 4 2 5 3 6 4 7 5 8 6 9 7 10 8 11 9 12 10 13 11 14 12
REMARK SMILES IDX 15 13 2 16 16 17 17 18 1 19
REMARK H PARENT 3 14 15 15
ROOT
ATOM      1  N   UNL     1     133.486 137.541 149.054  1.00  0.00    -0.350 N 
ATOM      2  C   UNL     1     133.348 137.024 150.330  1.00  0.00     0.213 C 
ATOM      3  N   UNL     1     133.690 135.819 150.650  1.00  0.00    -0.123 NA
ATOM      4  S   UNL     1     133.513 135.185 152.126  1.00  0.00     0.297 S 
ATOM      5  O   UNL     1     134.807 134.916 152.716  1.00  0.00    -0.198 OA
ATOM      6  O   UNL     1     132.436 134.218 152.132  1.00  0.00    -0.198 OA
ATOM      7  C   UNL     1     132.890 136.566 152.987  1.00  0.00     0.167 A 
ATOM      8  S   UNL     1     132.581 136.486 154.653  1.00  0.00    -0.108 S 
ATOM      9  C   UNL     1     132.083 138.111 154.653  1.00  0.00     0.096 A 
ATOM     10  Cl  UNL     1     131.569 138.843 156.120  1.00  0.00    -0.072 Cl
ATOM     11  C   UNL     1     132.144 138.711 153.417  1.00  0.00     0.060 A 
ATOM     12  C   UNL     1     132.613 137.787 152.450  1.00  0.00     0.074 A 
ATOM     13  N   UNL     1     132.801 138.014 151.135  1.00  0.00    -0.323 N 
ATOM     14  H   UNL     1     132.724 138.158 148.795  1.00  0.00     0.164 HD
ATOM     15  H   UNL     1     132.791 138.955 150.760  1.00  0.00     0.170 HD
ENDROOT
BRANCH   1  16
ATOM     16  C   UNL     1     134.099 136.846 147.889  1.00  0.00     0.038 C 
ATOM     17  C   UNL     1     133.453 136.894 146.525  1.00  0.00     0.030 C 
ATOM     18  C   UNL     1     133.515 135.594 147.282  1.00  0.00     0.030 C 
ATOM     19  C   UNL     1     135.613 136.909 147.920  1.00  0.00     0.034 C 
ENDBRANCH   1  16
TORSDOF 1
ENDMDL
