MODEL 1
REMARK VINA RESULT:    -4.809      0.000      0.000
REMARK INTER + INTRA:          -6.364
REMARK INTER:                  -6.355
REMARK INTRA:                  -0.009
REMARK UNBOUND:                -0.009
REMARK SMILES CCC(=O)O[C@]1(C(=O)CCl)[C@@H](C)C[C@H]2[C@@H]3C[C@H](F)C4=CC(=O)C=C[C@]4(C)[C@@]3(F)[C@@H](O)C[C@@]21C
REMARK SMILES IDX 6 1 11 2 12 3 13 4 14 5 15 6 16 7 17 8 18 9 19 10 20 11
REMARK SMILES IDX 21 12 22 13 23 14 24 15 25 16 26 17 27 18 28 19 29 20 31 21
REMARK SMILES IDX 32 22 33 23 5 24 3 25 4 26 2 27 1 28 7 29 8 30 9 31 10 32
REMARK SMILES IDX 30 33
REMARK H PARENT 30 34
ROOT
ATOM      1  C   UNL     1     133.836 138.333 144.127  1.00  0.00     0.179 C 
ATOM      2  C   UNL     1     135.404 138.497 143.944  1.00  0.00     0.039 C 
ATOM      3  C   UNL     1     135.918 139.650 143.084  1.00  0.00     0.012 C 
ATOM      4  C   UNL     1     136.003 138.586 145.372  1.00  0.00     0.012 C 
ATOM      5  C   UNL     1     134.877 138.118 146.286  1.00  0.00     0.006 C 
ATOM      6  C   UNL     1     135.018 138.370 147.799  1.00  0.00     0.037 C 
ATOM      7  C   UNL     1     136.300 137.710 148.335  1.00  0.00     0.049 C 
ATOM      8  C   UNL     1     136.432 137.835 149.847  1.00  0.00     0.194 C 
ATOM      9  F   UNL     1     137.551 137.152 150.222  1.00  0.00    -0.243 F 
ATOM     10  C   UNL     1     135.203 137.302 150.536  1.00  0.00    -0.020 C 
ATOM     11  C   UNL     1     135.292 136.292 151.422  1.00  0.00     0.055 C 
ATOM     12  C   UNL     1     134.099 135.708 152.065  1.00  0.00     0.178 C 
ATOM     13  O   UNL     1     134.190 134.800 152.879  1.00  0.00    -0.290 OA
ATOM     14  C   UNL     1     132.788 136.267 151.684  1.00  0.00     0.048 C 
ATOM     15  C   UNL     1     132.693 137.273 150.804  1.00  0.00    -0.009 C 
ATOM     16  C   UNL     1     133.874 137.951 150.110  1.00  0.00     0.047 C 
ATOM     17  C   UNL     1     133.876 139.413 150.612  1.00  0.00     0.024 C 
ATOM     18  C   UNL     1     133.753 137.814 148.536  1.00  0.00     0.152 C 
ATOM     19  F   UNL     1     133.739 136.453 148.266  1.00  0.00    -0.239 F 
ATOM     20  C   UNL     1     132.433 138.360 147.910  1.00  0.00     0.154 C 
ATOM     21  C   UNL     1     132.394 138.179 146.375  1.00  0.00     0.047 C 
ATOM     22  C   UNL     1     133.623 138.766 145.644  1.00  0.00     0.021 C 
ATOM     23  C   UNL     1     133.623 140.313 145.804  1.00  0.00     0.016 C 
ENDROOT
BRANCH   1  24
ATOM     24  O   UNL     1     133.651 136.883 144.002  1.00  0.00    -0.450 OA
BRANCH  24  25
ATOM     25  C   UNL     1     134.555 136.104 143.350  1.00  0.00     0.306 C 
ATOM     26  O   UNL     1     134.998 136.342 142.238  1.00  0.00    -0.252 OA
BRANCH  25  27
ATOM     27  C   UNL     1     134.926 134.926 144.217  1.00  0.00     0.119 C 
ATOM     28  C   UNL     1     133.818 134.566 145.190  1.00  0.00     0.016 C 
ENDBRANCH  25  27
ENDBRANCH  24  25
ENDBRANCH   1  24
BRANCH   1  29
ATOM     29  C   UNL     1     133.026 139.118 143.046  1.00  0.00     0.191 C 
ATOM     30  O   UNL     1     132.970 140.350 143.035  1.00  0.00    -0.294 OA
BRANCH  29  31
ATOM     31  C   UNL     1     132.285 138.291 142.009  1.00  0.00     0.189 C 
ATOM     32  Cl  UNL     1     133.088 138.404 140.429  1.00  0.00    -0.118 Cl
ENDBRANCH  29  31
ENDBRANCH   1  29
BRANCH  20  33
ATOM     33  O   UNL     1     132.196 139.719 148.252  1.00  0.00    -0.390 OA
ATOM     34  H   UNL     1     133.041 140.104 148.550  1.00  0.00     0.211 HD
ENDBRANCH  20  33
TORSDOF 6
ENDMDL
