MODEL 1
REMARK VINA RESULT:    -6.049      0.000      0.000
REMARK INTER + INTRA:         -14.450
REMARK INTER:                 -11.353
REMARK INTRA:                  -3.098
REMARK UNBOUND:                -3.098
REMARK SMILES CC/C=C\C/C=C\C/C=C\C/C=C\C/C=C\CCCC(=O)OCC
REMARK SMILES IDX 12 1 13 2 11 3 10 4 9 5 8 6 7 7 6 8 5 9 4 10 3 11 2 12 1 13
REMARK SMILES IDX 14 14 15 15 16 16 17 17 18 18 19 19 20 20 21 21 22 22 23 23
REMARK SMILES IDX 24 24
REMARK H PARENT
ROOT
ATOM      1  C   UNL     1     132.215 138.923 153.776  1.00  0.00    -0.027 C 
ATOM      2  C   UNL     1     131.211 138.478 154.550  1.00  0.00    -0.027 C 
ENDROOT
BRANCH   1   3
ATOM      3  C   UNL     1     133.692 138.817 154.026  1.00  0.00     0.054 C 
BRANCH   3   4
ATOM      4  C   UNL     1     134.448 139.813 153.193  1.00  0.00    -0.027 C 
ATOM      5  C   UNL     1     134.704 139.766 151.874  1.00  0.00    -0.027 C 
BRANCH   5   6
ATOM      6  C   UNL     1     134.320 138.694 150.897  1.00  0.00     0.054 C 
BRANCH   6   7
ATOM      7  C   UNL     1     135.400 137.653 150.799  1.00  0.00    -0.027 C 
ATOM      8  C   UNL     1     135.279 136.321 150.923  1.00  0.00    -0.027 C 
BRANCH   8   9
ATOM      9  C   UNL     1     134.031 135.528 151.182  1.00  0.00     0.054 C 
BRANCH   9  10
ATOM     10  C   UNL     1     133.740 135.466 152.654  1.00  0.00    -0.027 C 
ATOM     11  C   UNL     1     132.603 135.078 153.255  1.00  0.00    -0.031 C 
BRANCH  11  12
ATOM     12  C   UNL     1     131.344 134.585 152.602  1.00  0.00     0.023 C 
ATOM     13  C   UNL     1     130.110 135.117 153.312  1.00  0.00     0.008 C 
ENDBRANCH  11  12
ENDBRANCH   9  10
ENDBRANCH   8   9
ENDBRANCH   6   7
ENDBRANCH   5   6
ENDBRANCH   3   4
ENDBRANCH   1   3
BRANCH   2  14
ATOM     14  C   UNL     1     131.307 137.788 155.882  1.00  0.00     0.054 C 
BRANCH  14  15
ATOM     15  C   UNL     1     130.764 138.664 156.976  1.00  0.00    -0.027 C 
ATOM     16  C   UNL     1     129.516 138.699 157.471  1.00  0.00    -0.031 C 
BRANCH  16  17
ATOM     17  C   UNL     1     128.340 137.854 157.076  1.00  0.00     0.027 C 
BRANCH  17  18
ATOM     18  C   UNL     1     127.625 138.460 155.867  1.00  0.00     0.016 C 
BRANCH  18  19
ATOM     19  C   UNL     1     127.360 137.411 154.796  1.00  0.00     0.123 C 
BRANCH  19  20
ATOM     20  C   UNL     1     126.767 136.167 155.401  1.00  0.00     0.305 C 
ATOM     21  O   UNL     1     127.317 135.074 155.397  1.00  0.00    -0.252 OA
BRANCH  20  22
ATOM     22  O   UNL     1     125.540 136.436 155.928  1.00  0.00    -0.466 OA
BRANCH  22  23
ATOM     23  C   UNL     1     124.536 136.851 154.990  1.00  0.00     0.229 C 
ATOM     24  C   UNL     1     123.615 137.874 155.631  1.00  0.00     0.049 C 
ENDBRANCH  22  23
ENDBRANCH  20  22
ENDBRANCH  19  20
ENDBRANCH  18  19
ENDBRANCH  17  18
ENDBRANCH  16  17
ENDBRANCH  14  15
ENDBRANCH   2  14
TORSDOF 15
ENDMDL
