MODEL 1
REMARK VINA RESULT:    -6.861      0.000      0.000
REMARK INTER + INTRA:          -7.759
REMARK INTER:                  -7.864
REMARK INTRA:                   0.104
REMARK UNBOUND:                 0.104
REMARK SMILES CC(C)(C)c1cc(C=C(C#N)C#N)cc(Br)c1O
REMARK SMILES IDX 5 1 6 2 7 3 14 4 15 5 16 6 17 7 2 8 1 9 3 10 4 11 18 12 8 14
REMARK SMILES IDX 9 15 10 16 12 17 11 18 13 19
REMARK H PARENT 18 13
ROOT
ATOM      1  C   UNL     1     129.325 137.552 155.092  1.00  0.00     0.001 A 
ATOM      2  C   UNL     1     130.465 138.380 155.205  1.00  0.00     0.016 A 
ATOM      3  C   UNL     1     131.690 138.058 154.597  1.00  0.00    -0.022 A 
ATOM      4  C   UNL     1     131.800 136.895 153.838  1.00  0.00     0.027 A 
ATOM      5  C   UNL     1     130.697 136.059 153.708  1.00  0.00     0.060 A 
ATOM      6  Br  UNL     1     130.875 134.479 152.670  1.00  0.00    -0.047 Br
ATOM      7  C   UNL     1     129.477 136.379 154.326  1.00  0.00     0.133 A 
ENDROOT
BRANCH   1   8
ATOM      8  C   UNL     1     127.991 137.926 155.779  1.00  0.00    -0.009 C 
ATOM      9  C   UNL     1     127.067 138.674 154.793  1.00  0.00     0.016 C 
ATOM     10  C   UNL     1     128.253 138.806 157.023  1.00  0.00     0.016 C 
ATOM     11  C   UNL     1     127.184 136.700 156.280  1.00  0.00     0.016 C 
ENDBRANCH   1   8
BRANCH   7  12
ATOM     12  O   UNL     1     128.409 135.533 154.178  1.00  0.00    -0.506 OA
ATOM     13  H   UNL     1     128.631 134.889 153.481  1.00  0.00     0.293 HD
ENDBRANCH   7  12
BRANCH   3  14
ATOM     14  C   UNL     1     132.826 138.978 154.754  1.00  0.00     0.039 C 
ATOM     15  C   UNL     1     133.698 138.988 155.783  1.00  0.00     0.130 C 
ATOM     16  C   UNL     1     133.609 138.078 156.874  1.00  0.00     0.111 C 
ATOM     17  C   UNL     1     134.743 139.956 155.794  1.00  0.00     0.111 C 
ATOM     18  N   UNL     1     133.541 137.328 157.756  1.00  0.00    -0.192 NA
ATOM     19  N   UNL     1     135.586 140.752 155.779  1.00  0.00    -0.192 NA
ENDBRANCH   3  14
TORSDOF 3
ENDMDL
