MODEL 1
REMARK VINA RESULT:    -5.115      0.000      0.000
REMARK INTER + INTRA:         -14.915
REMARK INTER:                 -10.647
REMARK INTRA:                  -4.268
REMARK UNBOUND:                -4.268
REMARK SMILES C[C@H](NC(=O)[C@@H](N)Cc1ccc(O)cc1)C(=O)NCC(=O)N(C)[C@@H](Cc1ccccc1)C(=O)N[C@H](CO)CC[S@@](C)=O
REMARK SMILES IDX 20 1 21 2 19 3 18 4 16 5 17 6 2 8 1 9 3 10 4 11 5 12 6 14
REMARK SMILES IDX 7 15 8 18 9 19 10 20 15 21 11 22 14 23 12 24 13 25 22 27
REMARK SMILES IDX 23 28 24 29 25 30 26 31 27 32 31 33 28 34 30 35 29 36 32 37
REMARK SMILES IDX 33 38 34 39 35 41 36 42 37 43 38 45 39 46 40 47 42 48 41 49
REMARK H PARENT 18 7 3 13 7 16 7 17 13 26 34 40 37 44
ROOT
ATOM      1  C   UNL     1     134.635 135.618 145.335  1.00  0.00     0.242 C 
ATOM      2  O   UNL     1     135.247 134.607 144.964  1.00  0.00    -0.273 OA
ENDROOT
BRANCH   1   3
ATOM      3  C   UNL     1     133.897 135.549 146.696  1.00  0.00     0.216 C 
BRANCH   3   4
ATOM      4  N   UNL     1     134.581 135.790 147.950  1.00  0.00    -0.345 N 
ATOM      5  C   UNL     1     133.892 136.102 149.098  1.00  0.00     0.242 C 
ATOM      6  O   UNL     1     132.662 136.062 149.163  1.00  0.00    -0.273 OA
ATOM      7  H   UNL     1     135.600 135.800 147.955  1.00  0.00     0.164 HD
BRANCH   5   8
ATOM      8  C   UNL     1     134.764 136.502 150.306  1.00  0.00     0.168 C 
ATOM      9  C   UNL     1     134.781 135.411 151.368  1.00  0.00     0.041 C 
BRANCH   8  10
ATOM     10  N   UNL     1     134.213 137.739 150.842  1.00  0.00    -0.343 N 
ATOM     11  C   UNL     1     134.938 138.897 150.965  1.00  0.00     0.237 C 
ATOM     12  O   UNL     1     136.112 138.979 150.608  1.00  0.00    -0.273 OA
ATOM     13  H   UNL     1     133.242 137.712 151.133  1.00  0.00     0.164 HD
BRANCH  11  14
ATOM     14  C   UNL     1     134.195 140.089 151.609  1.00  0.00     0.145 C 
BRANCH  14  15
ATOM     15  N   UNL     1     133.797 141.121 150.620  1.00  0.00    -0.320 NA
ATOM     16  H   UNL     1     133.759 142.032 151.074  1.00  0.00     0.119 HD
ATOM     17  H   UNL     1     132.867 140.906 150.261  1.00  0.00     0.119 HD
ENDBRANCH  14  15
BRANCH  14  18
ATOM     18  C   UNL     1     133.007 139.591 152.455  1.00  0.00     0.064 C 
BRANCH  18  19
ATOM     19  C   UNL     1     133.342 139.245 153.891  1.00  0.00    -0.046 A 
ATOM     20  C   UNL     1     132.689 138.185 154.535  1.00  0.00     0.007 A 
ATOM     21  C   UNL     1     134.296 139.988 154.603  1.00  0.00     0.007 A 
ATOM     22  C   UNL     1     132.970 137.883 155.866  1.00  0.00     0.046 A 
ATOM     23  C   UNL     1     134.579 139.685 155.938  1.00  0.00     0.046 A 
ATOM     24  C   UNL     1     133.911 138.636 156.558  1.00  0.00     0.115 A 
BRANCH  24  25
ATOM     25  O   UNL     1     134.152 138.311 157.861  1.00  0.00    -0.508 OA
ATOM     26  H   UNL     1     135.016 138.676 158.111  1.00  0.00     0.293 HD
ENDBRANCH  24  25
ENDBRANCH  18  19
ENDBRANCH  14  18
ENDBRANCH  11  14
ENDBRANCH   8  10
ENDBRANCH   5   8
ENDBRANCH   3   4
ENDBRANCH   1   3
BRANCH   1  27
ATOM     27  N   UNL     1     134.454 136.691 144.453  1.00  0.00    -0.332 N 
ATOM     28  C   UNL     1     133.627 136.433 143.276  1.00  0.00     0.147 C 
BRANCH  27  29
ATOM     29  C   UNL     1     135.257 137.944 144.504  1.00  0.00     0.178 C 
BRANCH  29  30
ATOM     30  C   UNL     1     135.065 138.920 143.321  1.00  0.00     0.070 C 
BRANCH  30  31
ATOM     31  C   UNL     1     136.191 139.922 143.199  1.00  0.00    -0.045 A 
ATOM     32  C   UNL     1     135.904 141.284 143.030  1.00  0.00     0.004 A 
ATOM     33  C   UNL     1     137.528 139.508 143.230  1.00  0.00     0.004 A 
ATOM     34  C   UNL     1     136.936 142.214 142.901  1.00  0.00     0.000 A 
ATOM     35  C   UNL     1     138.559 140.440 143.095  1.00  0.00     0.000 A 
ATOM     36  C   UNL     1     138.263 141.792 142.932  1.00  0.00     0.000 A 
ENDBRANCH  30  31
ENDBRANCH  29  30
BRANCH  29  37
ATOM     37  C   UNL     1     134.884 138.664 145.821  1.00  0.00     0.243 C 
ATOM     38  O   UNL     1     135.550 138.542 146.848  1.00  0.00    -0.273 OA
ATOM     39  N   UNL     1     133.767 139.471 145.737  1.00  0.00    -0.349 N 
ATOM     40  H   UNL     1     133.084 139.140 145.063  1.00  0.00     0.163 HD
BRANCH  39  41
ATOM     41  C   UNL     1     133.208 140.107 146.932  1.00  0.00     0.108 C 
BRANCH  41  42
ATOM     42  C   UNL     1     132.157 139.196 147.593  1.00  0.00     0.180 C 
BRANCH  42  43
ATOM     43  O   UNL     1     132.471 138.999 148.973  1.00  0.00    -0.394 OA
ATOM     44  H   UNL     1     131.860 139.562 149.484  1.00  0.00     0.210 HD
ENDBRANCH  42  43
ENDBRANCH  41  42
BRANCH  41  45
ATOM     45  C   UNL     1     132.689 141.517 146.601  1.00  0.00     0.041 C 
BRANCH  45  46
ATOM     46  C   UNL     1     132.701 141.891 145.121  1.00  0.00     0.107 C 
BRANCH  46  47
ATOM     47  S   UNL     1     131.250 141.162 144.280  1.00  0.00     0.018 S 
ATOM     48  O   UNL     1     131.609 139.753 143.913  1.00  0.00    -0.260 OA
ATOM     49  C   UNL     1     131.389 142.167 142.782  1.00  0.00     0.123 C 
ENDBRANCH  46  47
ENDBRANCH  45  46
ENDBRANCH  41  45
ENDBRANCH  39  41
ENDBRANCH  29  37
ENDBRANCH  27  29
ENDBRANCH   1  27
TORSDOF 20
ENDMDL
