MODEL 1
REMARK VINA RESULT:    -6.138      0.000      0.000
REMARK INTER + INTRA:          -8.028
REMARK INTER:                  -6.855
REMARK INTRA:                  -1.173
REMARK UNBOUND:                -1.173
REMARK SMILES C[N+]1(C)CCC(=C(c2ccccc2)c2ccccc2)CC1
REMARK SMILES IDX 1 1 2 2 3 3 4 4 5 5 6 6 7 7 20 8 21 9 8 10 9 11 13 12 10 13
REMARK SMILES IDX 12 14 11 15 14 16 15 17 19 18 16 19 18 20 17 21
REMARK H PARENT
ROOT
ATOM      1  C   UNL     1     127.070 136.511 156.677  1.00  0.00     0.334 C 
ATOM      2  N   UNL     1     127.948 137.544 155.968  1.00  0.00    -0.328 N 
ATOM      3  C   UNL     1     127.060 138.725 155.587  1.00  0.00     0.334 C 
ATOM      4  C   UNL     1     128.561 136.880 154.716  1.00  0.00     0.268 C 
ATOM      5  C   UNL     1     129.625 137.761 154.051  1.00  0.00     0.093 C 
ATOM      6  C   UNL     1     130.714 138.146 155.040  1.00  0.00    -0.051 C 
ATOM      7  C   UNL     1     132.036 137.883 154.868  1.00  0.00    -0.011 C 
ATOM      8  C   UNL     1     130.127 138.847 156.254  1.00  0.00     0.093 C 
ATOM      9  C   UNL     1     129.068 137.976 156.937  1.00  0.00     0.268 C 
ENDROOT
BRANCH   7  10
ATOM     10  C   UNL     1     133.012 138.300 155.901  1.00  0.00    -0.018 A 
ATOM     11  C   UNL     1     133.800 139.443 155.711  1.00  0.00     0.009 A 
ATOM     12  C   UNL     1     133.158 137.551 157.076  1.00  0.00     0.009 A 
ATOM     13  C   UNL     1     134.727 139.826 156.682  1.00  0.00     0.001 A 
ATOM     14  C   UNL     1     134.087 137.935 158.044  1.00  0.00     0.001 A 
ATOM     15  C   UNL     1     134.872 139.071 157.845  1.00  0.00     0.000 A 
ENDBRANCH   7  10
BRANCH   7  16
ATOM     16  C   UNL     1     132.498 137.187 153.645  1.00  0.00    -0.018 A 
ATOM     17  C   UNL     1     132.760 137.909 152.473  1.00  0.00     0.009 A 
ATOM     18  C   UNL     1     132.681 135.797 153.653  1.00  0.00     0.009 A 
ATOM     19  C   UNL     1     133.207 137.251 151.327  1.00  0.00     0.001 A 
ATOM     20  C   UNL     1     133.130 135.142 152.505  1.00  0.00     0.001 A 
ATOM     21  C   UNL     1     133.395 135.868 151.345  1.00  0.00     0.000 A 
ENDBRANCH   7  16
TORSDOF 2
ENDMDL
