MODEL 1
REMARK VINA RESULT:    -5.744      0.000      0.000
REMARK INTER + INTRA:          -8.800
REMARK INTER:                  -8.766
REMARK INTRA:                  -0.033
REMARK UNBOUND:                -0.033
REMARK SMILES CONC(=O)Nc1ccc(-c2sc3c(c2CN(C)C)c(=O)n(-c2ccc(OC)nn2)c(=O)n3Cc2c(F)cccc2F)cc1
REMARK SMILES IDX 11 1 12 2 13 3 14 4 15 5 20 6 21 7 22 8 31 9 32 10 33 11
REMARK SMILES IDX 10 12 7 13 8 14 44 15 9 16 43 17 6 18 3 19 4 20 5 21 2 24
REMARK SMILES IDX 1 25 16 26 17 27 18 28 19 29 34 30 35 31 36 32 41 33 38 34
REMARK SMILES IDX 40 35 39 36 37 37 42 38 23 39 24 40 30 41 25 42 29 43 26 44
REMARK SMILES IDX 27 45 28 46
REMARK H PARENT 3 22 6 23
ROOT
ATOM      1  C   UNL     1     132.960 139.855 144.982  1.00  0.00     0.042 A 
ATOM      2  S   UNL     1     133.059 138.780 146.311  1.00  0.00    -0.116 S 
ATOM      3  C   UNL     1     134.702 138.493 146.038  1.00  0.00     0.113 A 
ATOM      4  C   UNL     1     135.180 139.135 144.934  1.00  0.00     0.081 A 
ATOM      5  C   UNL     1     134.180 139.989 144.328  1.00  0.00    -0.000 A 
ATOM      6  C   UNL     1     136.550 138.901 144.527  1.00  0.00     0.271 C 
ATOM      7  O   UNL     1     136.920 139.209 143.396  1.00  0.00    -0.268 OA
ATOM      8  N   UNL     1     137.337 138.216 145.464  1.00  0.00    -0.209 N 
ATOM      9  C   UNL     1     136.826 137.545 146.595  1.00  0.00     0.338 C 
ATOM     10  O   UNL     1     137.524 136.882 147.370  1.00  0.00    -0.247 OA
ATOM     11  N   UNL     1     135.449 137.676 146.866  1.00  0.00    -0.279 N 
ENDROOT
BRANCH   1  12
ATOM     12  C   UNL     1     131.675 140.488 144.692  1.00  0.00    -0.008 A 
ATOM     13  C   UNL     1     129.182 141.688 144.142  1.00  0.00     0.042 A 
ATOM     14  C   UNL     1     129.740 141.756 145.425  1.00  0.00     0.027 A 
ATOM     15  C   UNL     1     129.878 141.010 143.140  1.00  0.00     0.027 A 
ATOM     16  C   UNL     1     130.977 141.161 145.699  1.00  0.00     0.012 A 
ATOM     17  C   UNL     1     131.117 140.417 143.411  1.00  0.00     0.012 A 
BRANCH  13  18
ATOM     18  N   UNL     1     127.931 142.305 143.951  1.00  0.00    -0.306 N 
ATOM     19  N   UNL     1     125.707 142.645 143.584  1.00  0.00    -0.217 N 
ATOM     20  C   UNL     1     126.734 141.700 143.597  1.00  0.00     0.343 C 
ATOM     21  O   UNL     1     126.579 140.520 143.308  1.00  0.00    -0.246 OA
ATOM     22  H   UNL     1     125.720 143.277 144.373  1.00  0.00     0.200 HD
ATOM     23  H   UNL     1     127.921 143.315 143.946  1.00  0.00     0.171 HD
BRANCH  19  24
ATOM     24  O   UNL     1     124.425 142.053 143.413  1.00  0.00    -0.276 OA
ATOM     25  C   UNL     1     123.556 142.577 144.412  1.00  0.00     0.231 C 
ENDBRANCH  19  24
ENDBRANCH  13  18
ENDBRANCH   1  12
BRANCH   5  26
ATOM     26  C   UNL     1     134.441 140.906 143.159  1.00  0.00     0.121 C 
BRANCH  26  27
ATOM     27  N   UNL     1     134.668 140.098 141.947  1.00  0.00    -0.305 NA
ATOM     28  C   UNL     1     135.755 140.640 141.129  1.00  0.00     0.105 C 
ATOM     29  C   UNL     1     133.435 140.039 141.157  1.00  0.00     0.105 C 
ENDBRANCH  26  27
ENDBRANCH   5  26
BRANCH  11  30
ATOM     30  C   UNL     1     134.928 137.012 148.071  1.00  0.00     0.170 C 
BRANCH  30  31
ATOM     31  C   UNL     1     134.621 137.927 149.230  1.00  0.00     0.043 A 
ATOM     32  C   UNL     1     135.602 138.612 149.950  1.00  0.00     0.131 A 
ATOM     33  C   UNL     1     133.298 138.066 149.658  1.00  0.00     0.131 A 
ATOM     34  C   UNL     1     135.276 139.426 151.037  1.00  0.00     0.040 A 
ATOM     35  C   UNL     1     132.954 138.875 150.740  1.00  0.00     0.040 A 
ATOM     36  C   UNL     1     133.947 139.563 151.432  1.00  0.00     0.006 A 
ATOM     37  F   UNL     1     136.895 138.512 149.612  1.00  0.00    -0.207 F 
ATOM     38  F   UNL     1     132.320 137.406 149.020  1.00  0.00    -0.207 F 
ENDBRANCH  30  31
ENDBRANCH  11  30
BRANCH   8  39
ATOM     39  C   UNL     1     138.738 138.067 145.173  1.00  0.00     0.166 A 
ATOM     40  C   UNL     1     139.299 136.818 144.897  1.00  0.00     0.055 A 
ATOM     41  N   UNL     1     139.547 139.152 145.148  1.00  0.00    -0.128 NA
ATOM     42  C   UNL     1     140.663 136.701 144.624  1.00  0.00     0.074 A 
ATOM     43  N   UNL     1     140.900 139.045 144.884  1.00  0.00    -0.110 NA
ATOM     44  C   UNL     1     141.434 137.839 144.628  1.00  0.00     0.233 A 
BRANCH  44  45
ATOM     45  O   UNL     1     142.778 137.696 144.355  1.00  0.00    -0.480 OA
ATOM     46  C   UNL     1     143.538 137.329 145.503  1.00  0.00     0.280 C 
ENDBRANCH  44  45
ENDBRANCH   8  39
TORSDOF 9
ENDMDL
