MODEL 1
REMARK VINA RESULT:    -5.533      0.000      0.000
REMARK INTER + INTRA:          -6.757
REMARK INTER:                  -6.341
REMARK INTRA:                  -0.416
REMARK UNBOUND:                -0.416
REMARK SMILES CC(=O)c1c(O)c(C)c(O)c2c1OC1=CC(=O)C(=C(C)O)C(=O)[C@]12C
REMARK SMILES IDX 4 1 5 2 7 3 8 4 9 5 11 6 12 7 13 8 14 9 15 10 16 11 17 12
REMARK SMILES IDX 18 13 19 14 20 15 22 16 23 17 24 18 25 19 2 20 3 21 1 22
REMARK SMILES IDX 6 23 10 25 21 27
REMARK H PARENT 6 24 10 26 21 28
ROOT
ATOM      1  C   UNL     1     133.255 138.410 146.857  1.00  0.00     0.103 A 
ATOM      2  C   UNL     1     133.338 137.205 146.123  1.00  0.00     0.136 A 
ATOM      3  C   UNL     1     133.634 135.963 146.737  1.00  0.00     0.034 A 
ATOM      4  C   UNL     1     133.729 134.711 145.905  1.00  0.00     0.052 C 
ATOM      5  C   UNL     1     133.803 135.926 148.126  1.00  0.00     0.130 A 
ATOM      6  C   UNL     1     133.704 137.092 148.860  1.00  0.00     0.059 A 
ATOM      7  C   UNL     1     133.446 138.315 148.227  1.00  0.00     0.149 A 
ATOM      8  O   UNL     1     133.386 139.345 149.143  1.00  0.00    -0.459 OA
ATOM      9  C   UNL     1     133.474 138.778 150.411  1.00  0.00     0.126 C 
ATOM     10  C   UNL     1     133.064 139.419 151.511  1.00  0.00     0.096 C 
ATOM     11  C   UNL     1     132.915 138.666 152.782  1.00  0.00     0.196 C 
ATOM     12  O   UNL     1     132.824 139.281 153.837  1.00  0.00    -0.289 OA
ATOM     13  C   UNL     1     132.849 137.172 152.657  1.00  0.00     0.104 C 
ATOM     14  C   UNL     1     132.813 136.344 153.720  1.00  0.00     0.104 C 
ATOM     15  C   UNL     1     132.770 136.792 155.156  1.00  0.00     0.087 C 
ATOM     16  C   UNL     1     132.889 136.605 151.260  1.00  0.00     0.188 C 
ATOM     17  O   UNL     1     132.124 135.711 150.904  1.00  0.00    -0.292 OA
ATOM     18  C   UNL     1     133.871 137.313 150.335  1.00  0.00     0.121 C 
ATOM     19  C   UNL     1     135.325 137.084 150.763  1.00  0.00     0.034 C 
ENDROOT
BRANCH   1  20
ATOM     20  C   UNL     1     132.963 139.694 146.156  1.00  0.00     0.167 C 
ATOM     21  O   UNL     1     133.748 140.085 145.289  1.00  0.00    -0.294 OA
ATOM     22  C   UNL     1     131.740 140.498 146.504  1.00  0.00     0.094 C 
ENDBRANCH   1  20
BRANCH   2  23
ATOM     23  O   UNL     1     133.137 137.176 144.760  1.00  0.00    -0.507 OA
ATOM     24  H   UNL     1     132.447 136.501 144.560  1.00  0.00     0.293 HD
ENDBRANCH   2  23
BRANCH   5  25
ATOM     25  O   UNL     1     134.086 134.778 148.796  1.00  0.00    -0.507 OA
ATOM     26  H   UNL     1     134.534 135.018 149.626  1.00  0.00     0.293 HD
ENDBRANCH   5  25
BRANCH  14  27
ATOM     27  O   UNL     1     132.861 134.970 153.536  1.00  0.00    -0.512 OA
ATOM     28  H   UNL     1     132.725 134.517 154.386  1.00  0.00     0.293 HD
ENDBRANCH  14  27
TORSDOF 4
ENDMDL
