MODEL 1
REMARK VINA RESULT:    -5.746      0.000      0.000
REMARK INTER + INTRA:          -8.717
REMARK INTER:                  -8.098
REMARK INTRA:                  -0.620
REMARK UNBOUND:                -0.620
REMARK SMILES O/N=C/c1cc[n+](COC[n+]2ccc(/C=N/O)cc2)cc1
REMARK SMILES IDX 9 1 8 2 7 3 4 4 5 5 21 6 6 7 20 8 3 9 2 10 1 11 10 13 11 14
REMARK SMILES IDX 12 15 19 16 13 17 18 18 14 19 15 20 16 21 17 22
REMARK H PARENT 1 12 17 23
ROOT
ATOM      1  O   UNL     1     134.022 135.191 152.351  1.00  0.00    -0.262 OA
ENDROOT
BRANCH   1   2
ATOM      2  C   UNL     1     134.393 135.431 150.995  1.00  0.00     0.537 C 
BRANCH   2   3
ATOM      3  N   UNL     1     134.329 136.887 150.724  1.00  0.00    -0.180 N 
ATOM      4  C   UNL     1     134.184 139.593 150.202  1.00  0.00     0.008 A 
ATOM      5  C   UNL     1     134.878 139.136 151.316  1.00  0.00     0.080 A 
ATOM      6  C   UNL     1     133.562 138.682 149.354  1.00  0.00     0.080 A 
ATOM      7  C   UNL     1     134.936 137.767 151.558  1.00  0.00     0.311 A 
ATOM      8  C   UNL     1     133.648 137.328 149.637  1.00  0.00     0.311 A 
BRANCH   4   9
ATOM      9  C   UNL     1     134.116 141.040 149.930  1.00  0.00     0.162 C 
ATOM     10  N   UNL     1     133.767 141.873 150.854  1.00  0.00    -0.097 NA
BRANCH  10  11
ATOM     11  O   UNL     1     133.789 143.164 150.313  1.00  0.00    -0.411 OA
ATOM     12  H   UNL     1     134.245 143.042 149.458  1.00  0.00     0.330 HD
ENDBRANCH  10  11
ENDBRANCH   4   9
ENDBRANCH   2   3
ENDBRANCH   1   2
BRANCH   1  13
ATOM     13  C   UNL     1     132.620 134.975 152.492  1.00  0.00     0.537 C 
BRANCH  13  14
ATOM     14  N   UNL     1     132.095 135.897 153.525  1.00  0.00    -0.180 N 
ATOM     15  C   UNL     1     130.772 136.188 153.564  1.00  0.00     0.311 A 
ATOM     16  C   UNL     1     132.944 136.441 154.431  1.00  0.00     0.311 A 
ATOM     17  C   UNL     1     130.261 137.048 154.525  1.00  0.00     0.080 A 
ATOM     18  C   UNL     1     132.481 137.309 155.414  1.00  0.00     0.080 A 
ATOM     19  C   UNL     1     131.127 137.612 155.458  1.00  0.00     0.008 A 
BRANCH  19  20
ATOM     20  C   UNL     1     130.619 138.527 156.496  1.00  0.00     0.162 C 
ATOM     21  N   UNL     1     130.401 138.109 157.700  1.00  0.00    -0.097 NA
BRANCH  21  22
ATOM     22  O   UNL     1     129.929 139.184 158.461  1.00  0.00    -0.411 OA
ATOM     23  H   UNL     1     128.989 138.962 158.606  1.00  0.00     0.330 HD
ENDBRANCH  21  22
ENDBRANCH  19  20
ENDBRANCH  13  14
ENDBRANCH   1  13
TORSDOF 8
ENDMDL
