MODEL 1
REMARK VINA RESULT:    -4.813      0.000      0.000
REMARK INTER + INTRA:          -8.480
REMARK INTER:                  -6.642
REMARK INTRA:                  -1.838
REMARK UNBOUND:                -1.838
REMARK SMILES CC(C)NC[C@@H](O)COc1cccc2[nH]ccc12
REMARK SMILES IDX 6 1 5 2 4 3 2 5 1 6 3 7 7 8 8 10 9 11 10 12 11 13 18 14
REMARK SMILES IDX 12 15 17 16 14 17 13 18 16 19 15 20
REMARK H PARENT 4 4 7 9 15 21
ROOT
ATOM      1  C   UNL     1     133.901 135.478 151.724  1.00  0.00     0.165 C 
ENDROOT
BRANCH   1   2
ATOM      2  C   UNL     1     134.261 136.921 151.324  1.00  0.00     0.116 C 
BRANCH   2   3
ATOM      3  N   UNL     1     134.666 137.679 152.517  1.00  0.00    -0.312 NA
ATOM      4  H   UNL     1     134.238 137.219 153.326  1.00  0.00     0.123 HD
BRANCH   3   5
ATOM      5  C   UNL     1     134.308 139.102 152.515  1.00  0.00     0.047 C 
ATOM      6  C   UNL     1     132.939 139.378 151.893  1.00  0.00     0.024 C 
ATOM      7  C   UNL     1     134.424 139.740 153.901  1.00  0.00     0.024 C 
ENDBRANCH   3   5
ENDBRANCH   2   3
ENDBRANCH   1   2
BRANCH   1   8
ATOM      8  O   UNL     1     134.979 134.925 152.503  1.00  0.00    -0.388 OA
ATOM      9  H   UNL     1     134.848 133.958 152.471  1.00  0.00     0.211 HD
ENDBRANCH   1   8
BRANCH   1  10
ATOM     10  C   UNL     1     132.613 135.441 152.553  1.00  0.00     0.262 C 
BRANCH  10  11
ATOM     11  O   UNL     1     132.970 135.721 153.919  1.00  0.00    -0.490 OA
BRANCH  11  12
ATOM     12  C   UNL     1     132.019 136.544 154.484  1.00  0.00     0.128 A 
ATOM     13  C   UNL     1     130.831 136.762 153.778  1.00  0.00     0.047 A 
ATOM     14  C   UNL     1     132.249 137.216 155.702  1.00  0.00     0.041 A 
ATOM     15  C   UNL     1     129.852 137.608 154.296  1.00  0.00     0.006 A 
ATOM     16  C   UNL     1     133.327 137.266 156.631  1.00  0.00     0.032 A 
ATOM     17  C   UNL     1     131.247 138.056 156.194  1.00  0.00     0.049 A 
ATOM     18  C   UNL     1     130.038 138.266 155.518  1.00  0.00     0.027 A 
ATOM     19  C   UNL     1     132.962 138.107 157.657  1.00  0.00     0.083 A 
ATOM     20  N   UNL     1     131.704 138.578 157.384  1.00  0.00    -0.361 N 
ATOM     21  H   UNL     1     131.186 139.225 157.962  1.00  0.00     0.166 HD
ENDBRANCH  11  12
ENDBRANCH  10  11
ENDBRANCH   1  10
TORSDOF 7
ENDMDL
