MODEL 1
REMARK VINA RESULT:    -3.903      0.000      0.000
REMARK INTER + INTRA:          -4.840
REMARK INTER:                  -5.272
REMARK INTRA:                   0.432
REMARK UNBOUND:                 0.432
REMARK SMILES C=C1CC/C=C(\C)CC[C@@H]2[C@@H]1CC2(C)C
REMARK SMILES IDX 9 1 10 2 11 3 12 4 13 5 14 6 15 7 2 8 1 9 3 10 8 12 6 13
REMARK SMILES IDX 5 14 7 15 4 16
REMARK H PARENT
REMARK Flexibility Score:   15.900
ROOT
ATOM      1  C   UNL     1     134.656 139.518 153.894  1.00  0.00     0.009 C 
ENDROOT
BRANCH   1   2
ATOM      2  C   UNL     1     133.673 138.908 152.864  1.00  0.00     0.002 C 
ATOM      3  C   UNL     1     133.485 137.368 152.575  1.00  0.00     0.018 C 
ATOM      4  C   UNL     1     133.278 137.759 151.081  1.00  0.00     0.015 C 
ATOM      5  C   UNL     1     134.091 139.055 151.343  1.00  0.00    -0.031 C 
ATOM      6  C   UNL     1     135.568 138.885 150.974  1.00  0.00     0.011 C 
ATOM      7  C   UNL     1     133.503 140.293 150.668  1.00  0.00     0.011 C 
BRANCH   3   8
ATOM      8  C   UNL     1     132.320 136.577 153.133  1.00  0.00    -0.074 C 
ATOM      9  C   UNL     1     132.465 135.239 153.163  1.00  0.00     0.008 C 
BRANCH   8  10
ATOM     10  C   UNL     1     131.026 137.222 153.604  1.00  0.00     0.035 CG0
ATOM     11  G   UNL     1     131.006 137.626 155.097  1.00  0.00     0.000 G0
ENDBRANCH   8  10
ENDBRANCH   3   8
ENDBRANCH   1   2
BRANCH   1  12
ATOM     12  C   UNL     1     134.063 139.850 155.277  1.00  0.00     0.030 C 
BRANCH  12  13
ATOM     13  C   UNL     1     133.039 138.879 155.819  1.00  0.00    -0.077 C 
ATOM     14  C   UNL     1     131.794 138.863 155.306  1.00  0.00    -0.028 C 
ATOM     15  C   UNL     1     133.604 137.822 156.732  1.00  0.00     0.039 C 
BRANCH  14  16
ATOM     16  C   UNL     1     130.987 137.617 155.110  1.00  0.00     0.032 CG0
ATOM     17  G   UNL     1     131.033 137.242 153.610  1.00  0.00     0.000 G0
ENDBRANCH  14  16
ENDBRANCH  12  13
ENDBRANCH   1  12
TORSDOF 0
ENDMDL
