MODEL 1
REMARK VINA RESULT:    -6.148      0.000      0.000
REMARK INTER + INTRA:          -7.823
REMARK INTER:                  -7.586
REMARK INTRA:                  -0.237
REMARK UNBOUND:                -0.237
REMARK SMILES Oc1cc(O)c2cc(O)c(-c3cc(O)c(O)c(O)c3)[o+]c2c1
REMARK SMILES IDX 2 1 3 2 4 3 6 4 7 5 8 6 10 7 20 8 21 9 22 10 1 11 5 13 11 15
REMARK SMILES IDX 12 16 19 17 13 18 17 19 15 20 14 21 18 23 16 25 9 27
REMARK H PARENT 1 12 5 14 14 22 18 24 16 26 9 28
ROOT
ATOM      1  C   UNL     1     127.550 136.113 155.054  1.00  0.00     0.128 A 
ATOM      2  C   UNL     1     127.420 137.065 156.059  1.00  0.00     0.093 A 
ATOM      3  C   UNL     1     128.473 137.941 156.313  1.00  0.00     0.136 A 
ATOM      4  C   UNL     1     129.667 137.884 155.571  1.00  0.00     0.125 A 
ATOM      5  C   UNL     1     130.743 138.754 155.780  1.00  0.00     0.078 A 
ATOM      6  C   UNL     1     131.871 138.689 154.972  1.00  0.00     0.223 A 
ATOM      7  C   UNL     1     131.969 137.730 153.939  1.00  0.00     0.402 A 
ATOM      8  O   UNL     1     130.943 136.738 153.801  1.00  0.00    -0.202 OA
ATOM      9  C   UNL     1     129.763 136.907 154.569  1.00  0.00     0.368 A 
ATOM     10  C   UNL     1     128.714 136.024 154.307  1.00  0.00     0.162 A 
ENDROOT
BRANCH   1  11
ATOM     11  O   UNL     1     126.494 135.281 154.846  1.00  0.00    -0.507 OA
ATOM     12  H   UNL     1     125.673 135.623 155.243  1.00  0.00     0.293 HD
ENDBRANCH   1  11
BRANCH   3  13
ATOM     13  O   UNL     1     128.356 138.884 157.296  1.00  0.00    -0.507 OA
ATOM     14  H   UNL     1     129.189 138.952 157.801  1.00  0.00     0.293 HD
ENDBRANCH   3  13
BRANCH   7  15
ATOM     15  C   UNL     1     133.074 137.567 152.972  1.00  0.00     0.091 A 
ATOM     16  C   UNL     1     133.545 136.262 152.695  1.00  0.00     0.068 A 
ATOM     17  C   UNL     1     133.672 138.641 152.277  1.00  0.00     0.068 A 
ATOM     18  C   UNL     1     134.576 136.041 151.781  1.00  0.00     0.162 A 
ATOM     19  C   UNL     1     134.703 138.408 151.368  1.00  0.00     0.162 A 
ATOM     20  C   UNL     1     135.155 137.115 151.121  1.00  0.00     0.200 A 
BRANCH  18  21
ATOM     21  O   UNL     1     135.024 134.778 151.525  1.00  0.00    -0.504 OA
ATOM     22  H   UNL     1     134.304 134.207 151.221  1.00  0.00     0.293 HD
ENDBRANCH  18  21
BRANCH  19  23
ATOM     23  O   UNL     1     135.306 139.426 150.684  1.00  0.00    -0.504 OA
ATOM     24  H   UNL     1     136.244 139.220 150.532  1.00  0.00     0.293 HD
ENDBRANCH  19  23
BRANCH  20  25
ATOM     25  O   UNL     1     136.165 136.919 150.223  1.00  0.00    -0.502 OA
ATOM     26  H   UNL     1     136.599 136.085 150.488  1.00  0.00     0.293 HD
ENDBRANCH  20  25
ENDBRANCH   7  15
BRANCH   6  27
ATOM     27  O   UNL     1     132.886 139.583 155.209  1.00  0.00    -0.500 OA
ATOM     28  H   UNL     1     133.119 139.620 156.157  1.00  0.00     0.294 HD
ENDBRANCH   6  27
TORSDOF 7
ENDMDL
