MODEL 1
REMARK VINA RESULT:    -5.626      0.000      0.000
REMARK INTER + INTRA:          -7.650
REMARK INTER:                  -7.107
REMARK INTRA:                  -0.544
REMARK UNBOUND:                -0.544
REMARK SMILES O=C(O)c1cnn(-c2nc3cc(Cl)c(OC(F)(F)F)cc3[nH]2)c1
REMARK SMILES IDX 8 1 9 2 10 3 11 4 12 5 13 6 14 7 20 8 21 9 22 10 7 12 4 13
REMARK SMILES IDX 5 14 23 15 6 16 2 17 1 18 3 19 15 21 16 22 17 23 18 24 19 25
REMARK H PARENT 22 11 3 20
ROOT
ATOM      1  C   UNL     1     131.409 138.359 153.522  1.00  0.00     0.229 A 
ATOM      2  N   UNL     1     131.102 137.077 153.480  1.00  0.00    -0.211 NA
ATOM      3  C   UNL     1     129.901 136.961 154.131  1.00  0.00     0.092 A 
ATOM      4  C   UNL     1     129.129 135.819 154.382  1.00  0.00     0.055 A 
ATOM      5  C   UNL     1     127.925 135.972 155.077  1.00  0.00     0.085 A 
ATOM      6  Cl  UNL     1     126.985 134.559 155.405  1.00  0.00    -0.080 Cl
ATOM      7  C   UNL     1     127.491 137.238 155.497  1.00  0.00     0.150 A 
ATOM      8  C   UNL     1     128.265 138.386 155.277  1.00  0.00     0.076 A 
ATOM      9  C   UNL     1     129.461 138.202 154.579  1.00  0.00     0.071 A 
ATOM     10  N   UNL     1     130.443 139.077 154.182  1.00  0.00    -0.322 N 
ATOM     11  H   UNL     1     130.444 140.072 154.348  1.00  0.00     0.170 HD
ENDROOT
BRANCH   1  12
ATOM     12  N   UNL     1     132.555 138.941 152.980  1.00  0.00    -0.207 N 
ATOM     13  C   UNL     1     134.082 139.848 151.649  1.00  0.00     0.098 A 
ATOM     14  C   UNL     1     134.525 139.739 152.980  1.00  0.00     0.151 A 
ATOM     15  C   UNL     1     132.803 139.323 151.682  1.00  0.00     0.134 A 
ATOM     16  N   UNL     1     133.611 139.195 153.786  1.00  0.00    -0.173 NA
BRANCH  13  17
ATOM     17  C   UNL     1     134.763 140.374 150.495  1.00  0.00     0.338 C 
ATOM     18  O   UNL     1     134.363 141.295 149.799  1.00  0.00    -0.246 OA
BRANCH  17  19
ATOM     19  O   UNL     1     135.929 139.756 150.211  1.00  0.00    -0.478 OA
ATOM     20  H   UNL     1     135.674 138.816 150.111  1.00  0.00     0.297 HD
ENDBRANCH  17  19
ENDBRANCH  13  17
ENDBRANCH   1  12
BRANCH   7  21
ATOM     21  O   UNL     1     126.325 137.360 156.212  1.00  0.00    -0.404 OA
BRANCH  21  22
ATOM     22  C   UNL     1     125.238 137.703 155.359  1.00  0.00     0.573 C 
ATOM     23  F   UNL     1     125.437 137.279 154.093  1.00  0.00    -0.132 F 
ATOM     24  F   UNL     1     124.113 137.124 155.832  1.00  0.00    -0.132 F 
ATOM     25  F   UNL     1     125.048 139.042 155.353  1.00  0.00    -0.132 F 
ENDBRANCH  21  22
ENDBRANCH   7  21
TORSDOF 5
ENDMDL
