MODEL 1
REMARK VINA RESULT:    -6.618      0.000      0.000
REMARK INTER + INTRA:          -9.621
REMARK INTER:                  -8.553
REMARK INTRA:                  -1.068
REMARK UNBOUND:                -1.068
REMARK SMILES Cc1cc(Nc2ncnc3ccc(NC4=NC(C)(C)CO4)cc23)ccc1Oc1ccn2ncnc2c1
REMARK SMILES IDX 5 1 4 3 2 4 3 5 26 6 25 7 24 8 1 9 27 10 28 11 29 12 36 13
REMARK SMILES IDX 30 14 35 15 31 16 34 17 32 18 33 19 6 20 7 21 23 22 8 23
REMARK SMILES IDX 22 24 10 25 9 26 13 27 11 28 12 29 14 30 15 31 16 32 21 33
REMARK SMILES IDX 17 34 20 35 18 37 19 38
REMARK H PARENT 5 2 14 36
ROOT
ATOM      1  N   UNL     1     134.867 139.489 149.048  1.00  0.00    -0.340 N 
ATOM      2  H   UNL     1     135.148 140.464 149.051  1.00  0.00     0.168 HD
ENDROOT
BRANCH   1   3
ATOM      3  C   UNL     1     134.539 139.042 150.348  1.00  0.00     0.040 A 
ATOM      4  C   UNL     1     134.259 137.257 152.009  1.00  0.00    -0.006 A 
ATOM      5  C   UNL     1     134.516 137.682 150.694  1.00  0.00     0.033 A 
ATOM      6  C   UNL     1     134.004 138.226 152.985  1.00  0.00     0.130 A 
ATOM      7  C   UNL     1     134.090 139.585 152.678  1.00  0.00     0.049 A 
ATOM      8  C   UNL     1     134.363 139.987 151.369  1.00  0.00     0.030 A 
ATOM      9  C   UNL     1     134.234 135.789 152.322  1.00  0.00     0.048 C 
BRANCH   6  10
ATOM     10  O   UNL     1     133.742 137.887 154.289  1.00  0.00    -0.457 OA
BRANCH  10  11
ATOM     11  C   UNL     1     132.447 138.023 154.790  1.00  0.00     0.132 C 
ATOM     12  C   UNL     1     131.284 137.880 153.908  1.00  0.00     0.067 C 
ATOM     13  C   UNL     1     132.284 138.329 156.093  1.00  0.00     0.096 C 
ATOM     14  C   UNL     1     130.050 138.033 154.421  1.00  0.00     0.119 C 
ATOM     15  C   UNL     1     130.979 138.488 156.635  1.00  0.00     0.158 A 
ATOM     16  N   UNL     1     129.892 138.331 155.772  1.00  0.00    -0.221 N 
ATOM     17  N   UNL     1     130.555 138.768 157.847  1.00  0.00    -0.215 NA
ATOM     18  N   UNL     1     128.747 138.521 156.469  1.00  0.00    -0.155 NA
ATOM     19  C   UNL     1     129.201 138.777 157.696  1.00  0.00     0.247 A 
ENDBRANCH  10  11
ENDBRANCH   6  10
ENDBRANCH   1   3
BRANCH   1  20
ATOM     20  C   UNL     1     134.174 139.229 147.832  1.00  0.00     0.141 A 
ATOM     21  N   UNL     1     132.965 139.783 147.633  1.00  0.00    -0.219 NA
ATOM     22  C   UNL     1     134.795 138.417 146.860  1.00  0.00     0.045 A 
ATOM     23  C   UNL     1     132.382 139.548 146.454  1.00  0.00     0.224 A 
ATOM     24  C   UNL     1     136.050 137.764 147.013  1.00  0.00     0.040 A 
ATOM     25  C   UNL     1     134.081 138.258 145.668  1.00  0.00     0.076 A 
ATOM     26  N   UNL     1     132.887 138.817 145.456  1.00  0.00    -0.236 NA
ATOM     27  C   UNL     1     136.610 136.972 146.001  1.00  0.00     0.043 A 
ATOM     28  C   UNL     1     134.643 137.485 144.664  1.00  0.00     0.031 A 
ATOM     29  C   UNL     1     135.887 136.855 144.816  1.00  0.00     0.028 A 
BRANCH  27  30
ATOM     30  N   UNL     1     137.855 136.373 146.221  1.00  0.00    -0.310 N 
ATOM     31  C   UNL     1     139.018 136.512 145.534  1.00  0.00     0.289 C 
ATOM     32  N   UNL     1     139.328 137.261 144.530  1.00  0.00    -0.225 NA
ATOM     33  O   UNL     1     139.980 135.689 146.037  1.00  0.00    -0.462 OA
ATOM     34  C   UNL     1     140.762 137.010 144.304  1.00  0.00     0.095 C 
ATOM     35  C   UNL     1     141.039 135.738 145.087  1.00  0.00     0.263 C 
ATOM     36  H   UNL     1     137.898 135.686 146.960  1.00  0.00     0.171 HD
ATOM     37  C   UNL     1     141.020 136.836 142.812  1.00  0.00     0.040 C 
ATOM     38  C   UNL     1     141.551 138.203 144.851  1.00  0.00     0.040 C 
ENDBRANCH  27  30
ENDBRANCH   1  20
TORSDOF 5
ENDMDL
