MODEL 1
REMARK VINA RESULT:    -5.733      0.000      0.000
REMARK INTER + INTRA:          -8.773
REMARK INTER:                  -8.749
REMARK INTRA:                  -0.023
REMARK UNBOUND:                -0.023
REMARK SMILES CONC(=O)Nc1ccc(-c2sc3c(c2CN(C)C)c(=O)n(-c2ccc(OC)nn2)c(=O)n3Cc2c(F)cccc2F)cc1
REMARK SMILES IDX 11 1 12 2 13 3 14 4 15 5 20 6 21 7 22 8 31 9 32 10 33 11
REMARK SMILES IDX 10 12 7 13 8 14 44 15 9 16 43 17 6 18 3 19 4 20 5 21 2 24
REMARK SMILES IDX 1 25 16 26 17 27 18 28 19 29 34 30 35 31 36 32 41 33 38 34
REMARK SMILES IDX 40 35 39 36 37 37 42 38 23 39 24 40 30 41 25 42 29 43 26 44
REMARK SMILES IDX 27 45 28 46
REMARK H PARENT 3 22 6 23
ROOT
ATOM      1  C   UNL     1     132.969 139.851 144.990  1.00  0.00     0.042 A 
ATOM      2  S   UNL     1     133.066 138.775 146.317  1.00  0.00    -0.116 S 
ATOM      3  C   UNL     1     134.709 138.488 146.046  1.00  0.00     0.113 A 
ATOM      4  C   UNL     1     135.188 139.131 144.943  1.00  0.00     0.081 A 
ATOM      5  C   UNL     1     134.189 139.986 144.337  1.00  0.00    -0.000 A 
ATOM      6  C   UNL     1     136.559 138.897 144.538  1.00  0.00     0.271 C 
ATOM      7  O   UNL     1     136.931 139.206 143.406  1.00  0.00    -0.268 OA
ATOM      8  N   UNL     1     137.345 138.210 145.474  1.00  0.00    -0.209 N 
ATOM      9  C   UNL     1     136.832 137.538 146.604  1.00  0.00     0.338 C 
ATOM     10  O   UNL     1     137.529 136.874 147.379  1.00  0.00    -0.247 OA
ATOM     11  N   UNL     1     135.455 137.669 146.874  1.00  0.00    -0.279 N 
ENDROOT
BRANCH   1  12
ATOM     12  C   UNL     1     131.684 140.485 144.699  1.00  0.00    -0.008 A 
ATOM     13  C   UNL     1     129.192 141.687 144.148  1.00  0.00     0.042 A 
ATOM     14  C   UNL     1     129.752 141.758 145.430  1.00  0.00     0.027 A 
ATOM     15  C   UNL     1     129.887 141.005 143.147  1.00  0.00     0.027 A 
ATOM     16  C   UNL     1     130.988 141.162 145.705  1.00  0.00     0.012 A 
ATOM     17  C   UNL     1     131.125 140.411 143.419  1.00  0.00     0.012 A 
BRANCH  13  18
ATOM     18  N   UNL     1     127.941 142.305 143.956  1.00  0.00    -0.306 N 
ATOM     19  N   UNL     1     125.719 142.646 143.586  1.00  0.00    -0.217 N 
ATOM     20  C   UNL     1     126.746 141.701 143.598  1.00  0.00     0.343 C 
ATOM     21  O   UNL     1     126.591 140.522 143.304  1.00  0.00    -0.246 OA
ATOM     22  H   UNL     1     125.731 143.276 144.377  1.00  0.00     0.200 HD
ATOM     23  H   UNL     1     127.932 143.314 143.955  1.00  0.00     0.171 HD
BRANCH  19  24
ATOM     24  O   UNL     1     124.437 142.055 143.410  1.00  0.00    -0.276 OA
ATOM     25  C   UNL     1     123.592 142.503 144.464  1.00  0.00     0.231 C 
ENDBRANCH  19  24
ENDBRANCH  13  18
ENDBRANCH   1  12
BRANCH   5  26
ATOM     26  C   UNL     1     134.452 140.903 143.169  1.00  0.00     0.121 C 
BRANCH  26  27
ATOM     27  N   UNL     1     134.706 140.096 141.962  1.00  0.00    -0.305 NA
ATOM     28  C   UNL     1     135.779 140.666 141.144  1.00  0.00     0.105 C 
ATOM     29  C   UNL     1     133.479 139.997 141.169  1.00  0.00     0.105 C 
ENDBRANCH  26  27
ENDBRANCH   5  26
BRANCH  11  30
ATOM     30  C   UNL     1     134.933 137.004 148.078  1.00  0.00     0.170 C 
BRANCH  30  31
ATOM     31  C   UNL     1     134.618 137.919 149.234  1.00  0.00     0.043 A 
ATOM     32  C   UNL     1     135.593 138.612 149.955  1.00  0.00     0.131 A 
ATOM     33  C   UNL     1     133.293 138.049 149.661  1.00  0.00     0.131 A 
ATOM     34  C   UNL     1     135.260 139.426 151.040  1.00  0.00     0.040 A 
ATOM     35  C   UNL     1     132.942 138.858 150.741  1.00  0.00     0.040 A 
ATOM     36  C   UNL     1     133.929 139.554 151.433  1.00  0.00     0.006 A 
ATOM     37  F   UNL     1     136.887 138.520 149.619  1.00  0.00    -0.207 F 
ATOM     38  F   UNL     1     132.321 137.382 149.022  1.00  0.00    -0.207 F 
ENDBRANCH  30  31
ENDBRANCH  11  30
BRANCH   8  39
ATOM     39  C   UNL     1     138.746 138.061 145.185  1.00  0.00     0.166 A 
ATOM     40  C   UNL     1     139.312 136.809 144.936  1.00  0.00     0.055 A 
ATOM     41  N   UNL     1     139.550 139.148 145.134  1.00  0.00    -0.128 NA
ATOM     42  C   UNL     1     140.676 136.691 144.662  1.00  0.00     0.074 A 
ATOM     43  N   UNL     1     140.903 139.042 144.870  1.00  0.00    -0.110 NA
ATOM     44  C   UNL     1     141.443 137.833 144.641  1.00  0.00     0.233 A 
BRANCH  44  45
ATOM     45  O   UNL     1     142.787 137.690 144.369  1.00  0.00    -0.480 OA
ATOM     46  C   UNL     1     143.490 137.013 145.406  1.00  0.00     0.280 C 
ENDBRANCH  44  45
ENDBRANCH   8  39
TORSDOF 9
ENDMDL
