MODEL 1
REMARK VINA RESULT:    -5.321      0.000      0.000
REMARK INTER + INTRA:          -7.797
REMARK INTER:                  -6.876
REMARK INTRA:                  -0.921
REMARK UNBOUND:                -0.921
REMARK SMILES C[C@@H](O)[C@H]1C(=O)N2C(C(=O)O)=C(SC3Cn4cnc[n+]4C3)[C@H](C)[C@H]12
REMARK SMILES IDX 4 1 5 2 6 3 7 4 8 5 12 6 22 7 23 8 24 9 2 10 1 11 3 12 9 14
REMARK SMILES IDX 10 15 11 16 13 18 14 19 15 20 21 21 16 22 20 23 17 24 19 25
REMARK SMILES IDX 18 26
REMARK H PARENT 3 13 11 17
ROOT
ATOM      1  C   UNL     1     131.954 138.344 154.716  1.00  0.00     0.131 C 
ATOM      2  C   UNL     1     132.433 136.896 154.566  1.00  0.00     0.235 C 
ATOM      3  O   UNL     1     132.970 136.084 155.282  1.00  0.00    -0.274 OA
ATOM      4  N   UNL     1     132.150 136.885 153.223  1.00  0.00    -0.300 N 
ATOM      5  C   UNL     1     133.157 136.570 152.330  1.00  0.00     0.140 C 
ATOM      6  C   UNL     1     133.594 137.654 151.664  1.00  0.00     0.022 C 
ATOM      7  C   UNL     1     132.883 138.905 152.153  1.00  0.00     0.049 C 
ATOM      8  C   UNL     1     133.794 139.941 152.799  1.00  0.00     0.015 C 
ATOM      9  C   UNL     1     131.853 138.342 153.153  1.00  0.00     0.114 C 
ENDROOT
BRANCH   1  10
ATOM     10  C   UNL     1     130.691 138.571 155.536  1.00  0.00     0.125 C 
ATOM     11  C   UNL     1     129.394 138.418 154.756  1.00  0.00     0.039 C 
BRANCH  10  12
ATOM     12  O   UNL     1     130.687 137.663 156.635  1.00  0.00    -0.393 OA
ATOM     13  H   UNL     1     129.885 137.110 156.587  1.00  0.00     0.210 HD
ENDBRANCH  10  12
ENDBRANCH   1  10
BRANCH   5  14
ATOM     14  C   UNL     1     133.577 135.148 152.265  1.00  0.00     0.353 C 
ATOM     15  O   UNL     1     132.863 134.212 151.950  1.00  0.00    -0.245 OA
BRANCH  14  16
ATOM     16  O   UNL     1     134.869 134.925 152.565  1.00  0.00    -0.477 OA
ATOM     17  H   UNL     1     135.017 134.062 152.111  1.00  0.00     0.297 HD
ENDBRANCH  14  16
ENDBRANCH   5  14
BRANCH   6  18
ATOM     18  S   UNL     1     134.817 137.776 150.454  1.00  0.00    -0.118 SA
BRANCH  18  19
ATOM     19  C   UNL     1     133.890 138.399 148.993  1.00  0.00     0.119 C 
ATOM     20  C   UNL     1     134.856 138.507 147.759  1.00  0.00     0.188 C 
ATOM     21  C   UNL     1     132.826 137.318 148.594  1.00  0.00     0.284 C 
ATOM     22  N   UNL     1     134.703 137.224 147.129  1.00  0.00    -0.180 N 
ATOM     23  N   UNL     1     133.539 136.534 147.626  1.00  0.00    -0.155 N 
ATOM     24  C   UNL     1     135.317 136.357 146.253  1.00  0.00     0.380 A 
ATOM     25  C   UNL     1     133.542 135.306 147.007  1.00  0.00     0.474 A 
ATOM     26  N   UNL     1     134.621 135.160 146.140  1.00  0.00    -0.034 NA
ENDBRANCH  18  19
ENDBRANCH   6  18
TORSDOF 6
ENDMDL
