MODEL 1
REMARK VINA RESULT:    -5.975      0.000      0.000
REMARK INTER + INTRA:         -15.065
REMARK INTER:                 -11.214
REMARK INTRA:                  -3.851
REMARK UNBOUND:                -3.851
REMARK SMILES CC/C=C\C/C=C\C/C=C\C/C=C\C/C=C\CCCC(=O)OCC
REMARK SMILES IDX 12 1 13 2 11 3 10 4 9 5 8 6 7 7 6 8 5 9 4 10 3 11 2 12 1 13
REMARK SMILES IDX 14 14 15 15 16 16 17 17 18 18 19 19 20 20 21 21 22 22 23 23
REMARK SMILES IDX 24 24
REMARK H PARENT
ROOT
ATOM      1  C   UNL     1     134.529 139.429 153.364  1.00  0.00    -0.027 C 
ATOM      2  C   UNL     1     134.348 139.453 154.695  1.00  0.00    -0.027 C 
ENDROOT
BRANCH   1   3
ATOM      3  C   UNL     1     133.490 139.565 152.289  1.00  0.00     0.054 C 
BRANCH   3   4
ATOM      4  C   UNL     1     133.958 140.499 151.209  1.00  0.00    -0.027 C 
ATOM      5  C   UNL     1     134.378 140.189 149.970  1.00  0.00    -0.027 C 
BRANCH   5   6
ATOM      6  C   UNL     1     134.510 138.827 149.354  1.00  0.00     0.054 C 
BRANCH   6   7
ATOM      7  C   UNL     1     135.761 138.146 149.833  1.00  0.00    -0.027 C 
ATOM      8  C   UNL     1     135.880 136.928 150.386  1.00  0.00    -0.027 C 
BRANCH   8   9
ATOM      9  C   UNL     1     134.793 135.929 150.660  1.00  0.00     0.054 C 
BRANCH   9  10
ATOM     10  C   UNL     1     134.603 135.746 152.139  1.00  0.00    -0.027 C 
ATOM     11  C   UNL     1     133.448 135.622 152.813  1.00  0.00    -0.031 C 
BRANCH  11  12
ATOM     12  C   UNL     1     132.056 135.611 152.251  1.00  0.00     0.023 C 
ATOM     13  C   UNL     1     131.224 134.494 152.860  1.00  0.00     0.008 C 
ENDBRANCH  11  12
ENDBRANCH   9  10
ENDBRANCH   8   9
ENDBRANCH   6   7
ENDBRANCH   5   6
ENDBRANCH   3   4
ENDBRANCH   1   3
BRANCH   2  14
ATOM     14  C   UNL     1     133.056 139.587 155.452  1.00  0.00     0.054 C 
BRANCH  14  15
ATOM     15  C   UNL     1     132.479 138.236 155.766  1.00  0.00    -0.027 C 
ATOM     16  C   UNL     1     131.310 137.715 155.358  1.00  0.00    -0.031 C 
BRANCH  16  17
ATOM     17  C   UNL     1     130.283 138.340 154.459  1.00  0.00     0.027 C 
BRANCH  17  18
ATOM     18  C   UNL     1     129.036 137.458 154.374  1.00  0.00     0.016 C 
BRANCH  18  19
ATOM     19  C   UNL     1     128.033 137.810 155.464  1.00  0.00     0.123 C 
BRANCH  19  20
ATOM     20  C   UNL     1     127.376 136.570 156.008  1.00  0.00     0.305 C 
ATOM     21  O   UNL     1     127.907 135.468 156.032  1.00  0.00    -0.252 OA
BRANCH  20  22
ATOM     22  O   UNL     1     126.118 136.854 156.443  1.00  0.00    -0.466 OA
BRANCH  22  23
ATOM     23  C   UNL     1     125.098 136.878 155.434  1.00  0.00     0.229 C 
ATOM     24  C   UNL     1     124.066 137.942 155.759  1.00  0.00     0.049 C 
ENDBRANCH  22  23
ENDBRANCH  20  22
ENDBRANCH  19  20
ENDBRANCH  18  19
ENDBRANCH  17  18
ENDBRANCH  16  17
ENDBRANCH  14  15
ENDBRANCH   2  14
TORSDOF 15
ENDMDL
