MODEL 1
REMARK VINA RESULT:    -5.798      0.000      0.000
REMARK INTER + INTRA:         -10.093
REMARK INTER:                  -8.848
REMARK INTRA:                  -1.245
REMARK UNBOUND:                -1.245
REMARK SMILES CNC(=O)[C@@H](NC(=O)[C@H](CC(C)C)[C@H](O)C(=O)NO)C(C)(C)C
REMARK SMILES IDX 9 1 7 2 6 3 8 4 5 6 3 7 2 8 4 9 1 10 20 12 21 13 22 14 23 15
REMARK SMILES IDX 10 16 11 17 12 18 13 19 14 20 15 21 16 23 17 24 18 25 19 27
REMARK H PARENT 6 5 2 11 15 22 18 26 19 28
ROOT
ATOM      1  C   UNL     1     134.224 138.361 149.832  1.00  0.00     0.117 C 
ENDROOT
BRANCH   1   2
ATOM      2  C   UNL     1     134.531 137.714 151.187  1.00  0.00     0.226 C 
ATOM      3  N   UNL     1     133.565 137.936 152.151  1.00  0.00    -0.343 N 
ATOM      4  O   UNL     1     135.523 137.025 151.402  1.00  0.00    -0.275 OA
ATOM      5  H   UNL     1     132.616 138.039 151.805  1.00  0.00     0.164 HD
BRANCH   3   6
ATOM      6  C   UNL     1     133.642 137.235 153.437  1.00  0.00     0.176 C 
BRANCH   6   7
ATOM      7  C   UNL     1     132.976 135.860 153.192  1.00  0.00     0.242 C 
ATOM      8  N   UNL     1     131.638 135.912 152.861  1.00  0.00    -0.357 N 
ATOM      9  O   UNL     1     133.615 134.808 153.265  1.00  0.00    -0.273 OA
ATOM     10  C   UNL     1     130.877 134.698 152.708  1.00  0.00     0.142 C 
ATOM     11  H   UNL     1     131.130 136.751 153.114  1.00  0.00     0.163 HD
ENDBRANCH   6   7
BRANCH   6  12
ATOM     12  C   UNL     1     132.985 138.051 154.592  1.00  0.00    -0.009 C 
ATOM     13  C   UNL     1     131.661 138.665 154.086  1.00  0.00     0.013 C 
ATOM     14  C   UNL     1     133.903 139.210 155.026  1.00  0.00     0.013 C 
ATOM     15  C   UNL     1     132.677 137.183 155.826  1.00  0.00     0.013 C 
ENDBRANCH   6  12
ENDBRANCH   3   6
ENDBRANCH   1   2
BRANCH   1  16
ATOM     16  C   UNL     1     134.441 137.341 148.687  1.00  0.00     0.019 C 
BRANCH  16  17
ATOM     17  C   UNL     1     133.192 136.532 148.272  1.00  0.00    -0.017 C 
ATOM     18  C   UNL     1     132.077 137.438 147.744  1.00  0.00     0.007 C 
ATOM     19  C   UNL     1     133.555 135.516 147.182  1.00  0.00     0.007 C 
ENDBRANCH  16  17
ENDBRANCH   1  16
BRANCH   1  20
ATOM     20  C   UNL     1     134.963 139.704 149.700  1.00  0.00     0.217 C 
BRANCH  20  21
ATOM     21  O   UNL     1     136.348 139.563 150.046  1.00  0.00    -0.382 OA
ATOM     22  H   UNL     1     136.873 139.939 149.318  1.00  0.00     0.211 HD
ENDBRANCH  20  21
BRANCH  20  23
ATOM     23  C   UNL     1     134.317 140.854 150.490  1.00  0.00     0.272 C 
ATOM     24  O   UNL     1     134.010 140.812 151.678  1.00  0.00    -0.270 OA
ATOM     25  N   UNL     1     134.033 141.949 149.699  1.00  0.00    -0.236 N 
ATOM     26  H   UNL     1     134.645 142.119 148.903  1.00  0.00     0.198 HD
BRANCH  25  27
ATOM     27  O   UNL     1     133.579 143.091 150.404  1.00  0.00    -0.289 OA
ATOM     28  H   UNL     1     134.311 143.253 151.039  1.00  0.00     0.246 HD
ENDBRANCH  25  27
ENDBRANCH  20  23
ENDBRANCH   1  20
TORSDOF 10
ENDMDL
