MODEL 1
REMARK VINA RESULT:    -6.785      0.000      0.000
REMARK INTER + INTRA:         -10.648
REMARK INTER:                  -9.761
REMARK INTRA:                  -0.887
REMARK UNBOUND:                -0.887
REMARK SMILES N[C@@H](CC(=O)N1CCc2c(nc(C(F)(F)F)nc2C(F)(F)F)C1)CN1CC(F)(F)CCC1=O
REMARK SMILES IDX 3 1 2 2 1 3 24 6 25 7 26 8 32 9 27 10 31 11 33 12 30 13
REMARK SMILES IDX 28 14 29 15 4 16 5 17 6 18 7 19 23 20 8 21 10 22 9 23 11 24
REMARK SMILES IDX 18 25 12 26 17 27 19 28 20 29 21 30 22 31 13 32 14 33 15 34
REMARK SMILES IDX 16 35
REMARK H PARENT 1 4 1 5
ROOT
ATOM      1  C   UNL     1     132.539 139.776 147.164  1.00  0.00     0.120 C 
ENDROOT
BRANCH   1   2
ATOM      2  C   UNL     1     132.738 140.448 145.792  1.00  0.00     0.079 C 
BRANCH   2   3
ATOM      3  N   UNL     1     134.163 140.598 145.437  1.00  0.00    -0.326 NA
ATOM      4  H   UNL     1     134.335 141.592 145.241  1.00  0.00     0.119 HD
ATOM      5  H   UNL     1     134.745 140.377 146.243  1.00  0.00     0.119 HD
ENDBRANCH   2   3
BRANCH   2   6
ATOM      6  C   UNL     1     131.978 141.800 145.705  1.00  0.00     0.138 C 
BRANCH   6   7
ATOM      7  N   UNL     1     130.901 141.803 144.709  1.00  0.00    -0.335 N 
ATOM      8  C   UNL     1     131.270 141.487 143.322  1.00  0.00     0.196 C 
ATOM      9  C   UNL     1     129.597 141.683 145.169  1.00  0.00     0.223 C 
ATOM     10  C   UNL     1     130.162 141.705 142.301  1.00  0.00     0.265 C 
ATOM     11  C   UNL     1     128.494 141.745 144.128  1.00  0.00     0.106 C 
ATOM     12  O   UNL     1     129.319 141.620 146.366  1.00  0.00    -0.275 OA
ATOM     13  C   UNL     1     128.863 141.115 142.800  1.00  0.00     0.089 C 
ATOM     14  F   UNL     1     130.498 141.133 141.119  1.00  0.00    -0.205 F 
ATOM     15  F   UNL     1     129.998 143.030 142.060  1.00  0.00    -0.205 F 
ENDBRANCH   6   7
ENDBRANCH   2   6
ENDBRANCH   1   2
BRANCH   1  16
ATOM     16  C   UNL     1     133.407 140.331 148.282  1.00  0.00     0.224 C 
ATOM     17  O   UNL     1     133.917 141.449 148.200  1.00  0.00    -0.275 OA
BRANCH  16  18
ATOM     18  N   UNL     1     133.609 139.518 149.393  1.00  0.00    -0.336 N 
ATOM     19  C   UNL     1     133.813 138.074 149.332  1.00  0.00     0.125 C 
ATOM     20  C   UNL     1     134.094 140.176 150.607  1.00  0.00     0.176 C 
ATOM     21  C   UNL     1     133.170 137.382 150.535  1.00  0.00     0.061 C 
ATOM     22  C   UNL     1     133.977 139.349 151.873  1.00  0.00     0.068 A 
ATOM     23  C   UNL     1     133.558 138.024 151.839  1.00  0.00     0.008 A 
ATOM     24  N   UNL     1     134.321 139.971 153.022  1.00  0.00    -0.227 NA
ATOM     25  C   UNL     1     133.457 137.377 153.069  1.00  0.00     0.152 A 
ATOM     26  C   UNL     1     134.234 139.279 154.180  1.00  0.00     0.235 A 
ATOM     27  N   UNL     1     133.801 137.999 154.231  1.00  0.00    -0.220 NA
BRANCH  25  28
ATOM     28  C   UNL     1     132.967 135.935 153.154  1.00  0.00     0.433 C 
ATOM     29  F   UNL     1     132.900 135.479 154.438  1.00  0.00    -0.165 F 
ATOM     30  F   UNL     1     133.744 135.040 152.484  1.00  0.00    -0.165 F 
ATOM     31  F   UNL     1     131.708 135.788 152.647  1.00  0.00    -0.165 F 
ENDBRANCH  25  28
BRANCH  26  32
ATOM     32  C   UNL     1     134.597 139.990 155.495  1.00  0.00     0.451 C 
ATOM     33  F   UNL     1     134.724 139.139 156.558  1.00  0.00    -0.163 F 
ATOM     34  F   UNL     1     135.783 140.666 155.422  1.00  0.00    -0.163 F 
ATOM     35  F   UNL     1     133.669 140.915 155.886  1.00  0.00    -0.163 F 
ENDBRANCH  26  32
ENDBRANCH  16  18
ENDBRANCH   1  16
TORSDOF 8
ENDMDL
