MODEL 1
REMARK VINA RESULT:    -5.125      0.000      0.000
REMARK INTER + INTRA:          -5.741
REMARK INTER:                  -5.574
REMARK INTRA:                  -0.167
REMARK UNBOUND:                -0.167
REMARK SMILES Nc1c(Cl)cc(C=C2NCCN2)cc1Cl
REMARK SMILES IDX 2 1 3 2 4 3 5 4 6 5 13 6 14 7 15 8 1 9 7 12 8 13 9 14 12 15
REMARK SMILES IDX 10 16 11 17
REMARK H PARENT 1 10 1 11 9 18 12 19
ROOT
ATOM      1  C   UNL     1     129.325 138.197 156.427  1.00  0.00     0.069 A 
ATOM      2  C   UNL     1     129.228 138.222 155.024  1.00  0.00     0.066 A 
ATOM      3  Cl  UNL     1     127.692 138.034 154.243  1.00  0.00    -0.082 Cl
ATOM      4  C   UNL     1     130.354 138.421 154.217  1.00  0.00     0.031 A 
ATOM      5  C   UNL     1     131.617 138.580 154.795  1.00  0.00    -0.019 A 
ATOM      6  C   UNL     1     131.741 138.498 156.185  1.00  0.00     0.031 A 
ATOM      7  C   UNL     1     130.612 138.298 156.987  1.00  0.00     0.066 A 
ATOM      8  Cl  UNL     1     130.836 138.206 158.701  1.00  0.00    -0.082 Cl
ENDROOT
BRANCH   1   9
ATOM      9  N   UNL     1     128.209 137.865 157.227  1.00  0.00    -0.396 N 
ATOM     10  H   UNL     1     128.266 136.933 157.631  1.00  0.00     0.156 HD
ATOM     11  H   UNL     1     127.318 138.066 156.780  1.00  0.00     0.156 HD
ENDBRANCH   1   9
BRANCH   5  12
ATOM     12  C   UNL     1     132.786 138.753 153.922  1.00  0.00     0.052 C 
ATOM     13  C   UNL     1     133.386 137.793 153.203  1.00  0.00     0.099 C 
ATOM     14  N   UNL     1     134.477 138.020 152.388  1.00  0.00    -0.370 N 
ATOM     15  N   UNL     1     133.049 136.457 153.166  1.00  0.00    -0.370 N 
ATOM     16  C   UNL     1     134.778 136.812 151.614  1.00  0.00     0.135 C 
ATOM     17  C   UNL     1     134.075 135.706 152.437  1.00  0.00     0.135 C 
ATOM     18  H   UNL     1     134.429 138.894 151.875  1.00  0.00     0.162 HD
ATOM     19  H   UNL     1     132.770 136.091 154.071  1.00  0.00     0.162 HD
ENDBRANCH   5  12
TORSDOF 2
ENDMDL
