MODEL 1
REMARK VINA RESULT:    -4.618      0.000      0.000
REMARK INTER + INTRA:          -6.553
REMARK INTER:                  -5.563
REMARK INTRA:                  -0.989
REMARK UNBOUND:                -0.989
REMARK SMILES CC1(C)O[C@@H]2[C@@H](CO[C@@]3(COS(N)(=O)=O)OC(C)(C)O[C@@H]23)O1
REMARK SMILES IDX 11 1 10 2 9 3 2 4 4 5 22 6 5 7 6 8 21 9 7 10 20 11 8 12
REMARK SMILES IDX 17 13 16 14 1 15 3 16 18 17 19 18 12 19 14 20 15 21 13 22
REMARK H PARENT 13 23 13 24
ROOT
ATOM      1  O   UNL     1     133.289 135.705 152.124  1.00  0.00    -0.252 OA
ENDROOT
BRANCH   1   2
ATOM      2  C   UNL     1     133.877 136.263 153.298  1.00  0.00     0.253 C 
BRANCH   2   3
ATOM      3  C   UNL     1     132.958 137.362 153.859  1.00  0.00     0.226 C 
ATOM      4  C   UNL     1     134.462 139.697 150.689  1.00  0.00     0.164 C 
ATOM      5  O   UNL     1     133.587 138.594 150.983  1.00  0.00    -0.342 OA
ATOM      6  O   UNL     1     134.487 140.590 151.816  1.00  0.00    -0.342 OA
ATOM      7  C   UNL     1     132.718 139.102 152.002  1.00  0.00     0.187 C 
ATOM      8  C   UNL     1     133.636 139.995 152.805  1.00  0.00     0.179 C 
ATOM      9  C   UNL     1     132.064 137.990 152.798  1.00  0.00     0.215 C 
ATOM     10  C   UNL     1     134.476 139.213 153.814  1.00  0.00     0.199 C 
ATOM     11  O   UNL     1     130.962 138.511 153.561  1.00  0.00    -0.339 OA
ATOM     12  O   UNL     1     133.685 138.341 154.612  1.00  0.00    -0.343 OA
ATOM     13  C   UNL     1     130.839 137.607 154.670  1.00  0.00     0.167 C 
ATOM     14  O   UNL     1     131.994 136.761 154.740  1.00  0.00    -0.314 OA
ATOM     15  C   UNL     1     133.937 140.460 149.475  1.00  0.00     0.075 C 
ATOM     16  C   UNL     1     135.863 139.162 150.421  1.00  0.00     0.075 C 
ATOM     17  C   UNL     1     129.614 136.726 154.459  1.00  0.00     0.075 C 
ATOM     18  C   UNL     1     130.712 138.418 155.955  1.00  0.00     0.075 C 
ENDBRANCH   2   3
ENDBRANCH   1   2
BRANCH   1  19
ATOM     19  S   UNL     1     134.264 135.380 150.879  1.00  0.00     0.333 S 
ATOM     20  O   UNL     1     135.493 136.106 151.076  1.00  0.00    -0.182 OA
ATOM     21  O   UNL     1     134.228 133.959 150.636  1.00  0.00    -0.182 OA
BRANCH  19  22
ATOM     22  N   UNL     1     133.457 136.115 149.615  1.00  0.00    -0.205 NA
ATOM     23  H   UNL     1     133.175 135.421 148.925  1.00  0.00     0.139 HD
ATOM     24  H   UNL     1     132.686 136.678 149.966  1.00  0.00     0.139 HD
ENDBRANCH  19  22
ENDBRANCH   1  19
TORSDOF 4
ENDMDL
