MODEL 1
REMARK VINA RESULT:    -6.811      0.000      0.000
REMARK INTER + INTRA:          -8.472
REMARK INTER:                  -8.404
REMARK INTRA:                  -0.068
REMARK UNBOUND:                -0.068
REMARK SMILES N#Cc1ccc(N(Cc2ccc(Br)cc2)n2cnnc2)cc1
REMARK SMILES IDX 8 1 7 2 6 3 1 4 2 5 3 6 4 7 22 8 5 9 21 10 16 11 17 12 20 13
REMARK SMILES IDX 18 14 19 15 9 16 10 17 15 18 11 19 14 20 12 21 13 22
REMARK H PARENT
ROOT
ATOM      1  C   UNL     1     132.453 138.610 153.647  1.00  0.00     0.178 C 
ENDROOT
BRANCH   1   2
ATOM      2  N   UNL     1     131.582 137.442 153.460  1.00  0.00    -0.274 N 
BRANCH   2   3
ATOM      3  C   UNL     1     130.273 137.348 153.959  1.00  0.00     0.058 A 
ATOM      4  N   UNL     1     125.189 137.096 155.899  1.00  0.00    -0.192 NA
ATOM      5  C   UNL     1     126.272 137.155 155.487  1.00  0.00     0.099 C 
ATOM      6  C   UNL     1     127.609 137.223 154.976  1.00  0.00     0.052 A 
ATOM      7  C   UNL     1     128.252 138.449 154.835  1.00  0.00     0.021 A 
ATOM      8  C   UNL     1     128.286 136.060 154.613  1.00  0.00     0.021 A 
ATOM      9  C   UNL     1     129.561 138.505 154.335  1.00  0.00     0.029 A 
ATOM     10  C   UNL     1     129.596 136.127 154.113  1.00  0.00     0.029 A 
ENDBRANCH   2   3
BRANCH   2  11
ATOM     11  N   UNL     1     132.200 136.424 152.734  1.00  0.00    -0.227 N 
ATOM     12  C   UNL     1     132.685 136.498 151.456  1.00  0.00     0.247 A 
ATOM     13  C   UNL     1     132.448 135.141 153.134  1.00  0.00     0.247 A 
ATOM     14  N   UNL     1     133.180 135.335 151.098  1.00  0.00    -0.137 NA
ATOM     15  N   UNL     1     133.031 134.474 152.163  1.00  0.00    -0.137 NA
ENDBRANCH   2  11
ENDBRANCH   1   2
BRANCH   1  16
ATOM     16  C   UNL     1     133.112 138.606 155.013  1.00  0.00    -0.026 A 
ATOM     17  C   UNL     1     134.017 139.622 155.365  1.00  0.00     0.007 A 
ATOM     18  C   UNL     1     132.823 137.605 155.953  1.00  0.00     0.007 A 
ATOM     19  C   UNL     1     134.618 139.635 156.626  1.00  0.00     0.016 A 
ATOM     20  C   UNL     1     133.425 137.616 157.214  1.00  0.00     0.016 A 
ATOM     21  C   UNL     1     134.320 138.632 157.544  1.00  0.00     0.017 A 
ATOM     22  Br  UNL     1     135.132 138.649 159.250  1.00  0.00    -0.051 Br
ENDBRANCH   1  16
TORSDOF 4
ENDMDL
