MODEL 1
REMARK VINA RESULT:    -3.218      0.000      0.000
REMARK INTER + INTRA:          -3.982
REMARK INTER:                  -4.629
REMARK INTRA:                   0.647
REMARK UNBOUND:                 0.647
REMARK SMILES C=CCN1CCc2nc(N)sc2CC1
REMARK SMILES IDX 14 1 4 2 3 3 2 4 1 5 5 6 13 8 12 9 11 10 7 11 9 12 8 13 6 14
REMARK SMILES IDX 10 16
REMARK H PARENT 10 17 10 18
REMARK Flexibility Score:   24.900
ROOT
ATOM      1  C   UNL     1     132.742 137.013 152.624  1.00  0.00     0.090 C 
ENDROOT
BRANCH   1   2
ATOM      2  N   UNL     1     132.321 138.298 153.225  1.00  0.00    -0.299 NA
BRANCH   2   3
ATOM      3  C   UNL     1     131.056 138.149 153.963  1.00  0.00     0.111 C 
BRANCH   3   4
ATOM      4  C   UNL     1     131.182 138.050 155.460  1.00  0.00    -0.019 C 
ATOM      5  C   UNL     1     130.185 138.293 156.321  1.00  0.00     0.005 C 
ENDBRANCH   3   4
ENDBRANCH   2   3
BRANCH   2   6
ATOM      6  C   UNL     1     133.368 138.931 154.056  1.00  0.00     0.091 CG0
ATOM      7  G   UNL     1     134.512 139.581 153.264  1.00  0.00     0.000 G0
ENDBRANCH   2   6
ENDBRANCH   1   2
BRANCH   1   8
ATOM      8  C   UNL     1     133.716 137.144 151.439  1.00  0.00     0.064 C 
BRANCH   8   9
ATOM      9  C   UNL     1     133.907 138.558 151.010  1.00  0.00     0.031 A 
ATOM     10  S   UNL     1     133.706 139.064 149.390  1.00  0.00    -0.102 S 
ATOM     11  C   UNL     1     134.257 139.637 151.796  1.00  0.00     0.058 A 
ATOM     12  C   UNL     1     134.110 140.668 149.849  1.00  0.00     0.180 A 
ATOM     13  N   UNL     1     134.367 140.841 151.121  1.00  0.00    -0.225 NA
BRANCH  11  14
ATOM     14  C   UNL     1     134.515 139.587 153.262  1.00  0.00     0.073 CG0
ATOM     15  G   UNL     1     133.369 138.939 154.055  1.00  0.00     0.000 G0
ENDBRANCH  11  14
BRANCH  12  16
ATOM     16  N   UNL     1     134.135 141.669 148.953  1.00  0.00    -0.375 N 
ATOM     17  H   UNL     1     134.491 141.400 148.042  1.00  0.00     0.159 HD
ATOM     18  H   UNL     1     134.487 142.560 149.279  1.00  0.00     0.159 HD
ENDBRANCH  12  16
ENDBRANCH   8   9
ENDBRANCH   1   8
TORSDOF 3
ENDMDL
