MODEL 1
REMARK VINA RESULT:    -5.854      0.000      0.000
REMARK INTER + INTRA:          -9.717
REMARK INTER:                  -8.591
REMARK INTRA:                  -1.125
REMARK UNBOUND:                -1.125
REMARK SMILES N=C(NCCc1ccc(I)cc1)SCCCc1cnc[nH]1
REMARK SMILES IDX 13 1 2 2 1 3 3 4 4 7 5 8 6 9 7 10 12 11 8 12 11 13 9 14
REMARK SMILES IDX 10 15 14 16 15 17 16 18 17 19 18 20 21 21 19 22 20 23
REMARK H PARENT 1 5 3 6 21 24
ROOT
ATOM      1  S   UNL     1     135.308 136.931 150.729  1.00  0.00    -0.089 SA
ENDROOT
BRANCH   1   2
ATOM      2  C   UNL     1     134.043 135.809 151.137  1.00  0.00     0.153 C 
ATOM      3  N   UNL     1     134.268 134.560 150.953  1.00  0.00    -0.279 NA
ATOM      4  N   UNL     1     132.911 136.358 151.637  1.00  0.00    -0.365 N 
ATOM      5  H   UNL     1     135.220 134.477 150.578  1.00  0.00     0.190 HD
ATOM      6  H   UNL     1     133.030 137.299 151.999  1.00  0.00     0.162 HD
BRANCH   4   7
ATOM      7  C   UNL     1     131.921 135.566 152.351  1.00  0.00     0.119 C 
BRANCH   7   8
ATOM      8  C   UNL     1     131.756 136.022 153.807  1.00  0.00     0.056 C 
BRANCH   8   9
ATOM      9  C   UNL     1     130.410 136.655 154.081  1.00  0.00    -0.046 A 
ATOM     10  C   UNL     1     130.308 138.028 154.344  1.00  0.00     0.005 A 
ATOM     11  C   UNL     1     129.250 135.869 154.100  1.00  0.00     0.005 A 
ATOM     12  C   UNL     1     129.067 138.605 154.620  1.00  0.00     0.015 A 
ATOM     13  C   UNL     1     128.008 136.444 154.378  1.00  0.00     0.015 A 
ATOM     14  C   UNL     1     127.921 137.810 154.637  1.00  0.00     0.013 A 
ATOM     15  I   UNL     1     126.075 138.669 155.051  1.00  0.00    -0.044 I 
ENDBRANCH   8   9
ENDBRANCH   7   8
ENDBRANCH   4   7
ENDBRANCH   1   2
BRANCH   1  16
ATOM     16  C   UNL     1     134.395 138.471 151.063  1.00  0.00     0.078 C 
BRANCH  16  17
ATOM     17  C   UNL     1     134.897 139.177 152.322  1.00  0.00     0.018 C 
BRANCH  17  18
ATOM     18  C   UNL     1     133.769 139.721 153.205  1.00  0.00     0.056 C 
BRANCH  18  19
ATOM     19  C   UNL     1     134.073 139.523 154.649  1.00  0.00     0.034 A 
ATOM     20  C   UNL     1     134.900 140.198 155.520  1.00  0.00     0.134 A 
ATOM     21  N   UNL     1     133.508 138.529 155.409  1.00  0.00    -0.348 N 
ATOM     22  N   UNL     1     134.853 139.641 156.771  1.00  0.00    -0.245 NA
ATOM     23  C   UNL     1     134.008 138.641 156.674  1.00  0.00     0.196 A 
ATOM     24  H   UNL     1     132.842 137.836 155.095  1.00  0.00     0.167 HD
ENDBRANCH  18  19
ENDBRANCH  17  18
ENDBRANCH  16  17
ENDBRANCH   1  16
TORSDOF 8
ENDMDL
