MODEL 1
REMARK VINA RESULT:    -7.373      0.000      0.000
REMARK INTER + INTRA:         -10.300
REMARK INTER:                  -9.528
REMARK INTRA:                  -0.772
REMARK UNBOUND:                -0.772
REMARK SMILES CN(C/C=C/C#CC(C)(C)C)Cc1cccc2ccccc12
REMARK SMILES IDX 3 1 2 2 1 3 12 4 13 5 14 6 22 7 15 8 21 9 17 10 16 11 20 12
REMARK SMILES IDX 18 13 19 14 4 15 5 16 6 17 7 18 8 19 9 20 10 21 11 22
REMARK H PARENT
ROOT
ATOM      1  C   UNL     1     132.506 138.617 156.548  1.00  0.00     0.112 C 
ENDROOT
BRANCH   1   2
ATOM      2  N   UNL     1     133.510 138.756 155.489  1.00  0.00    -0.298 NA
ATOM      3  C   UNL     1     134.405 139.891 155.705  1.00  0.00     0.106 C 
BRANCH   2   4
ATOM      4  C   UNL     1     132.903 138.760 154.148  1.00  0.00     0.120 C 
BRANCH   4   5
ATOM      5  C   UNL     1     133.433 137.670 153.227  1.00  0.00    -0.026 A 
ATOM      6  C   UNL     1     133.029 136.344 153.478  1.00  0.00     0.006 A 
ATOM      7  C   UNL     1     134.318 137.943 152.144  1.00  0.00    -0.014 A 
ATOM      8  C   UNL     1     133.486 135.296 152.687  1.00  0.00     0.001 A 
ATOM      9  C   UNL     1     134.773 139.238 151.808  1.00  0.00     0.009 A 
ATOM     10  C   UNL     1     134.779 136.861 151.350  1.00  0.00    -0.018 A 
ATOM     11  C   UNL     1     134.356 135.555 151.632  1.00  0.00     0.009 A 
ATOM     12  C   UNL     1     135.646 139.458 150.739  1.00  0.00     0.001 A 
ATOM     13  C   UNL     1     135.657 137.098 150.279  1.00  0.00     0.009 A 
ATOM     14  C   UNL     1     136.090 138.388 149.976  1.00  0.00     0.001 A 
ENDBRANCH   4   5
ENDBRANCH   2   4
ENDBRANCH   1   2
BRANCH   1  15
ATOM     15  C   UNL     1     131.104 138.332 156.090  1.00  0.00    -0.003 C 
ATOM     16  C   UNL     1     130.016 138.515 156.852  1.00  0.00     0.057 C 
ATOM     17  C   UNL     1     128.715 138.237 156.358  1.00  0.00    -0.075 C 
BRANCH  17  18
ATOM     18  C   UNL     1     127.613 138.002 155.942  1.00  0.00    -0.093 C 
ATOM     19  C   UNL     1     126.254 137.716 155.430  1.00  0.00     0.023 C 
ATOM     20  C   UNL     1     126.358 136.884 154.144  1.00  0.00     0.025 C 
ATOM     21  C   UNL     1     125.535 139.038 155.129  1.00  0.00     0.025 C 
ATOM     22  C   UNL     1     125.465 136.932 156.488  1.00  0.00     0.025 C 
ENDBRANCH  17  18
ENDBRANCH   1  15
TORSDOF 5
ENDMDL
