MODEL 1
REMARK VINA RESULT:    -7.441      0.000      0.000
REMARK INTER + INTRA:          -9.082
REMARK INTER:                  -9.398
REMARK INTRA:                   0.317
REMARK UNBOUND:                 0.317
REMARK SMILES NS(=O)(=O)c1cc2c(cc1C(F)(F)F)N[C@@H](Cc1ccccc1)NS2(=O)=O
REMARK SMILES IDX 5 1 6 2 7 3 8 4 9 5 10 6 15 7 16 8 24 9 25 10 26 11 27 12
REMARK SMILES IDX 2 15 3 16 4 17 1 18 11 21 12 22 13 23 14 24 17 25 18 26
REMARK SMILES IDX 19 27 23 28 20 29 22 30 21 31
REMARK H PARENT 15 13 24 14 1 19 1 20
ROOT
ATOM      1  C   UNL     1     133.365 137.207 148.885  1.00  0.00     0.095 A 
ATOM      2  C   UNL     1     133.234 136.247 149.896  1.00  0.00     0.046 A 
ATOM      3  C   UNL     1     133.076 136.662 151.222  1.00  0.00     0.107 A 
ATOM      4  C   UNL     1     133.015 138.007 151.576  1.00  0.00     0.056 A 
ATOM      5  C   UNL     1     133.136 138.950 150.547  1.00  0.00     0.041 A 
ATOM      6  C   UNL     1     133.322 138.579 149.194  1.00  0.00     0.078 A 
ATOM      7  N   UNL     1     132.876 138.469 152.883  1.00  0.00    -0.368 N 
ATOM      8  C   UNL     1     132.973 137.538 153.993  1.00  0.00     0.166 C 
ATOM      9  N   UNL     1     132.174 136.368 153.709  1.00  0.00    -0.189 NA
ATOM     10  S   UNL     1     132.811 135.448 152.466  1.00  0.00     0.244 S 
ATOM     11  O   UNL     1     134.105 134.949 152.875  1.00  0.00    -0.207 OA
ATOM     12  O   UNL     1     131.748 134.578 152.019  1.00  0.00    -0.207 OA
ATOM     13  H   UNL     1     132.121 139.147 152.977  1.00  0.00     0.162 HD
ATOM     14  H   UNL     1     131.180 136.540 153.574  1.00  0.00     0.143 HD
ENDROOT
BRANCH   1  15
ATOM     15  S   UNL     1     133.540 136.632 147.212  1.00  0.00     0.238 S 
ATOM     16  O   UNL     1     134.942 136.568 146.888  1.00  0.00    -0.207 OA
ATOM     17  O   UNL     1     132.587 137.323 146.377  1.00  0.00    -0.207 OA
BRANCH  15  18
ATOM     18  N   UNL     1     132.974 135.063 147.338  1.00  0.00    -0.225 NA
ATOM     19  H   UNL     1     133.012 134.597 146.429  1.00  0.00     0.137 HD
ATOM     20  H   UNL     1     133.469 134.563 148.081  1.00  0.00     0.137 HD
ENDBRANCH  15  18
ENDBRANCH   1  15
BRANCH   6  21
ATOM     21  C   UNL     1     133.433 139.677 148.158  1.00  0.00     0.417 C 
ATOM     22  F   UNL     1     132.277 139.870 147.472  1.00  0.00    -0.166 F 
ATOM     23  F   UNL     1     134.420 139.487 147.241  1.00  0.00    -0.166 F 
ATOM     24  F   UNL     1     133.718 140.888 148.722  1.00  0.00    -0.166 F 
ENDBRANCH   6  21
BRANCH   8  25
ATOM     25  C   UNL     1     132.549 138.189 155.331  1.00  0.00     0.077 C 
BRANCH  25  26
ATOM     26  C   UNL     1     131.058 138.310 155.565  1.00  0.00    -0.045 A 
ATOM     27  C   UNL     1     130.166 138.332 154.482  1.00  0.00     0.004 A 
ATOM     28  C   UNL     1     130.545 138.402 156.867  1.00  0.00     0.004 A 
ATOM     29  C   UNL     1     128.790 138.420 154.700  1.00  0.00     0.000 A 
ATOM     30  C   UNL     1     129.169 138.490 157.083  1.00  0.00     0.000 A 
ATOM     31  C   UNL     1     128.293 138.495 156.000  1.00  0.00     0.000 A 
ENDBRANCH  25  26
ENDBRANCH   8  25
TORSDOF 5
ENDMDL
