MODEL 1
REMARK VINA RESULT:    -1.682      0.000      0.000
REMARK INTER + INTRA:          -6.910
REMARK INTER:                  -3.550
REMARK INTRA:                  -3.360
REMARK UNBOUND:                -3.360
REMARK SMILES C/C=C1\NC(=O)[C@H]2CSSCC/C=C/[C@H](CC(=O)N[C@H](C(C)C)C(=O)N2)OC(=O)[C@H](C(C)C)NC1=O
REMARK SMILES IDX 24 1 25 2 26 3 7 5 5 6 4 7 6 8 3 10 2 11 1 12 35 13 34 14
REMARK SMILES IDX 36 15 30 17 31 19 32 20 33 21 8 22 9 23 10 24 11 25 12 26
REMARK SMILES IDX 20 28 19 29 17 30 18 31 16 33 15 34 14 35 13 36 27 38 28 39
REMARK SMILES IDX 29 40 21 42 22 43 23 44
REMARK H PARENT 26 4 4 9 34 16 19 32
REMARK Flexibility Score:   79.800
ROOT
ATOM      1  C   UNL     1     139.714 138.351 144.423  1.00  0.00     0.243 C 
ATOM      2  O   UNL     1     140.574 138.116 145.266  1.00  0.00    -0.273 OA
ATOM      3  N   UNL     1     138.508 137.696 144.400  1.00  0.00    -0.342 N 
ATOM      4  H   UNL     1     137.800 138.054 143.745  1.00  0.00     0.164 HD
ENDROOT
BRANCH   3   5
ATOM      5  C   UNL     1     138.031 136.735 145.402  1.00  0.00     0.182 C 
BRANCH   5   6
ATOM      6  C   UNL     1     136.832 137.456 146.067  1.00  0.00     0.247 C 
ATOM      7  N   UNL     1     135.737 136.704 146.404  1.00  0.00    -0.320 N 
ATOM      8  O   UNL     1     136.890 138.669 146.287  1.00  0.00    -0.272 OA
ATOM      9  H   UNL     1     135.889 135.715 146.534  1.00  0.00     0.170 HD
BRANCH   7  10
ATOM     10  C   UNL     1     134.443 137.149 146.635  1.00  0.00     0.102 C 
ATOM     11  C   UNL     1     133.732 136.638 147.663  1.00  0.00     0.001 C 
ATOM     12  C   UNL     1     134.168 135.680 148.726  1.00  0.00     0.038 C 
BRANCH  10  13
ATOM     13  C   UNL     1     133.648 138.101 145.723  1.00  0.00     0.268 C 
ATOM     14  N   UNL     1     134.071 139.398 145.619  1.00  0.00    -0.337 N 
ATOM     15  O   UNL     1     132.698 137.690 145.055  1.00  0.00    -0.268 OA
ATOM     16  H   UNL     1     134.647 139.778 146.361  1.00  0.00     0.164 HD
BRANCH  14  17
ATOM     17  C   UNL     1     133.413 140.399 144.770  1.00  0.00     0.195 CG1
ATOM     18  G   UNL     1     134.398 141.036 143.758  1.00  0.00     0.000 G1
BRANCH  17  19
ATOM     19  C   UNL     1     132.661 141.445 145.632  1.00  0.00     0.017 C 
ATOM     20  C   UNL     1     133.074 141.381 147.105  1.00  0.00     0.010 C 
ATOM     21  C   UNL     1     131.138 141.352 145.506  1.00  0.00     0.010 C 
ENDBRANCH  17  19
ENDBRANCH  14  17
ENDBRANCH  10  13
ENDBRANCH   7  10
ENDBRANCH   5   6
BRANCH   5  22
ATOM     22  C   UNL     1     137.728 135.346 144.815  1.00  0.00     0.116 C 
BRANCH  22  23
ATOM     23  S   UNL     1     138.002 135.231 143.010  1.00  0.00    -0.091 SA
BRANCH  23  24
ATOM     24  S   UNL     1     136.319 134.267 142.345  1.00  0.00    -0.094 SA
BRANCH  24  25
ATOM     25  C   UNL     1     134.957 135.360 142.899  1.00  0.00     0.086 C 
BRANCH  25  26
ATOM     26  C   UNL     1     134.136 135.949 141.744  1.00  0.00     0.039 CG0
ATOM     27  G   UNL     1     134.280 137.442 141.581  1.00  0.00     0.000 G0
ENDBRANCH  25  26
ENDBRANCH  24  25
ENDBRANCH  23  24
ENDBRANCH  22  23
ENDBRANCH   5  22
ENDBRANCH   3   5
BRANCH   1  28
ATOM     28  C   UNL     1     139.863 139.412 143.292  1.00  0.00     0.173 C 
BRANCH  28  29
ATOM     29  N   UNL     1     138.663 139.339 142.442  1.00  0.00    -0.344 N 
ATOM     30  C   UNL     1     137.884 140.443 142.185  1.00  0.00     0.224 C 
ATOM     31  O   UNL     1     138.171 141.553 142.629  1.00  0.00    -0.275 OA
ATOM     32  H   UNL     1     138.300 138.420 142.237  1.00  0.00     0.164 HD
BRANCH  30  33
ATOM     33  C   UNL     1     136.675 140.211 141.308  1.00  0.00     0.149 C 
BRANCH  33  34
ATOM     34  C   UNL     1     135.439 139.701 142.065  1.00  0.00     0.208 C 
BRANCH  34  35
ATOM     35  C   UNL     1     135.219 138.207 142.137  1.00  0.00     0.014 C 
ATOM     36  C   UNL     1     134.261 137.452 141.573  1.00  0.00    -0.027 CG0
ATOM     37  G   UNL     1     134.159 135.957 141.754  1.00  0.00     0.000 G0
ENDBRANCH  34  35
BRANCH  34  38
ATOM     38  O   UNL     1     135.419 140.173 143.428  1.00  0.00    -0.456 OA
BRANCH  38  39
ATOM     39  C   UNL     1     134.413 141.036 143.763  1.00  0.00     0.329 CG1
ATOM     40  O   UNL     1     134.288 142.151 143.268  1.00  0.00    -0.250 OA
ATOM     41  G   UNL     1     133.430 140.416 144.787  1.00  0.00     0.000 G1
ENDBRANCH  38  39
ENDBRANCH  34  38
ENDBRANCH  33  34
ENDBRANCH  30  33
ENDBRANCH  28  29
BRANCH  28  42
ATOM     42  C   UNL     1     141.154 139.219 142.463  1.00  0.00     0.015 C 
ATOM     43  C   UNL     1     140.850 138.774 141.025  1.00  0.00     0.010 C 
ATOM     44  C   UNL     1     141.972 140.518 142.403  1.00  0.00     0.010 C 
ENDBRANCH  28  42
ENDBRANCH   1  28
TORSDOF 2
ENDMDL
