MODEL 1
REMARK VINA RESULT:    -6.456      0.000      0.000
REMARK INTER + INTRA:         -11.478
REMARK INTER:                  -9.664
REMARK INTRA:                  -1.814
REMARK UNBOUND:                -1.814
REMARK SMILES CC1=C(C)C(=O)C(CCCCC#CCCCC#CCO)=C(C)C1=O
REMARK SMILES IDX 11 1 12 2 10 3 9 4 8 5 7 6 2 7 3 8 23 9 5 10 21 11 24 12
REMARK SMILES IDX 6 13 1 14 4 15 22 16 13 17 14 18 15 19 16 20 17 21 18 22
REMARK SMILES IDX 19 23 20 24
REMARK H PARENT 20 25
ROOT
ATOM      1  C   UNL     1     130.001 135.065 153.187  1.00  0.00     0.089 C 
ATOM      2  C   UNL     1     131.440 135.176 152.910  1.00  0.00    -0.103 C 
ENDROOT
BRANCH   1   3
ATOM      3  C   UNL     1     129.562 135.952 154.354  1.00  0.00     0.013 C 
BRANCH   3   4
ATOM      4  C   UNL     1     128.479 136.989 154.027  1.00  0.00     0.006 C 
BRANCH   4   5
ATOM      5  C   UNL     1     128.879 138.425 154.385  1.00  0.00     0.040 C 
BRANCH   5   6
ATOM      6  C   UNL     1     130.162 138.463 155.187  1.00  0.00     0.007 C 
ATOM      7  C   UNL     1     132.791 138.505 156.411  1.00  0.00     0.003 C 
ATOM      8  C   UNL     1     132.723 138.646 155.075  1.00  0.00     0.003 C 
ATOM      9  C   UNL     1     131.549 138.336 157.219  1.00  0.00     0.185 C 
ATOM     10  C   UNL     1     131.403 138.639 154.379  1.00  0.00     0.185 C 
ATOM     11  C   UNL     1     130.234 138.327 156.522  1.00  0.00     0.004 C 
ATOM     12  O   UNL     1     131.611 138.201 158.437  1.00  0.00    -0.289 OA
ATOM     13  O   UNL     1     131.342 138.781 153.161  1.00  0.00    -0.289 OA
ATOM     14  C   UNL     1     134.048 138.501 157.238  1.00  0.00     0.049 C 
ATOM     15  C   UNL     1     133.889 138.817 154.140  1.00  0.00     0.049 C 
ATOM     16  C   UNL     1     129.056 138.176 157.446  1.00  0.00     0.049 C 
ENDBRANCH   5   6
ENDBRANCH   4   5
ENDBRANCH   3   4
ENDBRANCH   1   3
BRANCH   2  17
ATOM     17  C   UNL     1     132.615 135.273 152.682  1.00  0.00    -0.103 C 
ATOM     18  C   UNL     1     134.052 135.389 152.395  1.00  0.00     0.090 C 
BRANCH  18  19
ATOM     19  C   UNL     1     134.320 135.798 150.947  1.00  0.00     0.026 C 
BRANCH  19  20
ATOM     20  C   UNL     1     135.566 136.674 150.803  1.00  0.00     0.090 C 
ATOM     21  C   UNL     1     135.198 138.082 150.586  1.00  0.00    -0.101 C 
BRANCH  21  22
ATOM     22  C   UNL     1     134.896 139.231 150.406  1.00  0.00    -0.075 C 
ATOM     23  C   UNL     1     134.523 140.630 150.189  1.00  0.00     0.245 C 
BRANCH  23  24
ATOM     24  O   UNL     1     133.388 140.957 150.980  1.00  0.00    -0.384 OA
ATOM     25  H   UNL     1     132.823 141.525 150.429  1.00  0.00     0.211 HD
ENDBRANCH  23  24
ENDBRANCH  21  22
ENDBRANCH  19  20
ENDBRANCH  18  19
ENDBRANCH   2  17
TORSDOF 9
ENDMDL
