MODEL 1
REMARK VINA RESULT:    -3.869      0.000      0.000
REMARK INTER + INTRA:          -5.945
REMARK INTER:                  -4.886
REMARK INTRA:                  -1.058
REMARK UNBOUND:                -1.058
REMARK SMILES OC[C@@H](O)[C@H]1O[C@@H]2O[C@H](C(Cl)(Cl)Cl)O[C@@H]2[C@H]1O
REMARK SMILES IDX 3 1 2 2 1 3 4 5 5 7 6 8 16 9 7 10 15 11 8 12 14 13 9 14
REMARK SMILES IDX 17 15 10 17 11 18 12 19 13 20
REMARK H PARENT 1 4 4 6 17 16
ROOT
ATOM      1  C   UNL     1     134.581 137.346 152.021  1.00  0.00     0.171 C 
ENDROOT
BRANCH   1   2
ATOM      2  C   UNL     1     135.311 136.112 151.473  1.00  0.00     0.190 C 
BRANCH   2   3
ATOM      3  O   UNL     1     134.939 134.930 152.170  1.00  0.00    -0.394 OA
ATOM      4  H   UNL     1     134.561 134.306 151.526  1.00  0.00     0.210 HD
ENDBRANCH   2   3
ENDBRANCH   1   2
BRANCH   1   5
ATOM      5  O   UNL     1     134.815 138.491 151.191  1.00  0.00    -0.388 OA
ATOM      6  H   UNL     1     135.491 139.037 151.631  1.00  0.00     0.211 HD
ENDBRANCH   1   5
BRANCH   1   7
ATOM      7  C   UNL     1     133.067 137.121 152.240  1.00  0.00     0.184 C 
ATOM      8  O   UNL     1     132.911 136.215 153.366  1.00  0.00    -0.341 OA
ATOM      9  C   UNL     1     132.212 138.335 152.603  1.00  0.00     0.180 C 
ATOM     10  C   UNL     1     132.547 136.990 154.511  1.00  0.00     0.285 C 
ATOM     11  C   UNL     1     132.399 138.435 154.105  1.00  0.00     0.209 C 
ATOM     12  O   UNL     1     131.253 136.618 154.974  1.00  0.00    -0.316 OA
ATOM     13  O   UNL     1     131.234 138.947 154.755  1.00  0.00    -0.337 OA
ATOM     14  C   UNL     1     130.682 137.832 155.487  1.00  0.00     0.305 C 
BRANCH   9  15
ATOM     15  O   UNL     1     132.538 139.544 151.937  1.00  0.00    -0.387 OA
ATOM     16  H   UNL     1     132.928 140.137 152.606  1.00  0.00     0.211 HD
ENDBRANCH   9  15
BRANCH  14  17
ATOM     17  C   UNL     1     129.123 137.816 155.495  1.00  0.00     0.241 C 
ATOM     18  Cl  UNL     1     128.513 136.185 155.041  1.00  0.00    -0.078 Cl
ATOM     19  Cl  UNL     1     128.472 138.994 154.303  1.00  0.00    -0.078 Cl
ATOM     20  Cl  UNL     1     128.472 138.226 157.118  1.00  0.00    -0.078 Cl
ENDBRANCH  14  17
ENDBRANCH   1   7
TORSDOF 6
ENDMDL
