MODEL 1
REMARK VINA RESULT:    -4.608      0.000      0.000
REMARK INTER + INTRA:          -6.398
REMARK INTER:                  -5.686
REMARK INTRA:                  -0.712
REMARK UNBOUND:                -0.712
REMARK SMILES CCC[C@@H](C)C1(CC)C(=O)NC(=S)NC1=O
REMARK SMILES IDX 4 1 5 2 3 3 2 4 1 5 6 6 9 7 15 8 10 9 11 10 14 11 16 12
REMARK SMILES IDX 12 13 13 14 7 17 8 18
REMARK H PARENT 11 15 14 16
ROOT
ATOM      1  C   UNL     1     133.347 136.720 153.195  1.00  0.00     0.011 C 
ATOM      2  C   UNL     1     134.470 137.076 152.204  1.00  0.00     0.009 C 
ENDROOT
BRANCH   1   3
ATOM      3  C   UNL     1     132.166 136.038 152.450  1.00  0.00     0.004 C 
BRANCH   3   4
ATOM      4  C   UNL     1     131.945 134.573 152.843  1.00  0.00    -0.003 C 
ATOM      5  C   UNL     1     130.463 134.227 152.873  1.00  0.00     0.004 C 
ENDBRANCH   3   4
ENDBRANCH   1   3
BRANCH   1   6
ATOM      6  C   UNL     1     132.884 137.940 154.094  1.00  0.00     0.131 C 
ATOM      7  C   UNL     1     131.756 138.691 153.398  1.00  0.00     0.242 C 
ATOM      8  C   UNL     1     132.485 137.363 155.449  1.00  0.00     0.242 C 
ATOM      9  O   UNL     1     131.935 139.462 152.456  1.00  0.00    -0.273 OA
ATOM     10  N   UNL     1     130.482 138.458 153.839  1.00  0.00    -0.302 N 
ATOM     11  N   UNL     1     131.150 137.330 155.752  1.00  0.00    -0.302 N 
ATOM     12  O   UNL     1     133.297 136.891 156.244  1.00  0.00    -0.273 OA
ATOM     13  C   UNL     1     130.144 137.841 154.999  1.00  0.00     0.179 C 
ATOM     14  S   UNL     1     128.560 137.732 155.488  1.00  0.00    -0.040 S 
ATOM     15  H   UNL     1     129.749 138.934 153.329  1.00  0.00     0.172 HD
ATOM     16  H   UNL     1     130.912 136.905 156.639  1.00  0.00     0.172 HD
BRANCH   6  17
ATOM     17  C   UNL     1     134.058 138.935 154.342  1.00  0.00     0.024 C 
ATOM     18  C   UNL     1     133.783 139.983 155.421  1.00  0.00     0.005 C 
ENDBRANCH   6  17
ENDBRANCH   1   6
TORSDOF 4
ENDMDL
