MODEL 1
REMARK VINA RESULT:    -7.803      0.000      0.000
REMARK INTER + INTRA:         -10.109
REMARK INTER:                  -9.855
REMARK INTRA:                  -0.254
REMARK UNBOUND:                -0.254
REMARK SMILES CC(C)(O)c1coc(S(=O)(=O)NC(=O)Nc2c3c(cc4c2CCC4)CCC3)c1
REMARK SMILES IDX 5 1 6 2 7 3 8 4 28 5 2 6 1 7 3 8 4 9 9 11 10 12 11 13 12 14
REMARK SMILES IDX 13 15 14 16 15 17 16 20 21 21 17 22 20 23 22 24 18 25 27 26
REMARK SMILES IDX 19 27 24 28 23 29 25 30 26 31
REMARK H PARENT 4 10 12 18 15 19
ROOT
ATOM      1  C   UNL     1     133.031 137.010 147.977  1.00  0.00     0.023 A 
ATOM      2  C   UNL     1     133.596 135.768 147.770  1.00  0.00     0.203 A 
ATOM      3  O   UNL     1     133.987 135.203 148.938  1.00  0.00    -0.451 OA
ATOM      4  C   UNL     1     133.688 136.086 149.956  1.00  0.00     0.238 A 
ATOM      5  C   UNL     1     133.106 137.210 149.387  1.00  0.00     0.071 A 
ENDROOT
BRANCH   1   6
ATOM      6  C   UNL     1     132.482 137.966 146.951  1.00  0.00     0.087 C 
ATOM      7  C   UNL     1     132.733 139.417 147.372  1.00  0.00     0.047 C 
ATOM      8  C   UNL     1     133.062 137.721 145.552  1.00  0.00     0.047 C 
BRANCH   6   9
ATOM      9  O   UNL     1     131.060 137.812 146.841  1.00  0.00    -0.386 OA
ATOM     10  H   UNL     1     130.858 136.879 147.027  1.00  0.00     0.211 HD
ENDBRANCH   6   9
ENDBRANCH   1   6
BRANCH   4  11
ATOM     11  S   UNL     1     134.061 135.681 151.669  1.00  0.00     0.298 S 
ATOM     12  O   UNL     1     135.504 135.755 151.723  1.00  0.00    -0.198 OA
ATOM     13  O   UNL     1     133.310 134.469 151.905  1.00  0.00    -0.198 OA
BRANCH  11  14
ATOM     14  N   UNL     1     133.410 136.942 152.544  1.00  0.00    -0.228 N 
ATOM     15  C   UNL     1     132.573 136.720 153.633  1.00  0.00     0.333 C 
ATOM     16  O   UNL     1     132.136 135.618 153.905  1.00  0.00    -0.247 OA
ATOM     17  N   UNL     1     132.283 137.899 154.268  1.00  0.00    -0.307 N 
ATOM     18  H   UNL     1     133.978 137.780 152.526  1.00  0.00     0.185 HD
ATOM     19  H   UNL     1     132.314 138.696 153.654  1.00  0.00     0.171 HD
BRANCH  17  20
ATOM     20  C   UNL     1     131.524 138.044 155.443  1.00  0.00     0.049 A 
ATOM     21  C   UNL     1     130.139 138.204 155.487  1.00  0.00    -0.021 A 
ATOM     22  C   UNL     1     132.183 137.949 156.672  1.00  0.00    -0.021 A 
ATOM     23  C   UNL     1     129.462 138.313 156.728  1.00  0.00    -0.042 A 
ATOM     24  C   UNL     1     129.112 138.119 154.390  1.00  0.00     0.038 C 
ATOM     25  C   UNL     1     131.495 138.079 157.897  1.00  0.00    -0.042 A 
ATOM     26  C   UNL     1     133.655 137.797 156.941  1.00  0.00     0.038 C 
ATOM     27  C   UNL     1     130.127 138.269 157.945  1.00  0.00     0.008 A 
ATOM     28  C   UNL     1     127.976 138.387 156.542  1.00  0.00     0.036 C 
ATOM     29  C   UNL     1     127.876 138.733 155.058  1.00  0.00     0.010 C 
ATOM     30  C   UNL     1     132.437 138.027 159.060  1.00  0.00     0.036 C 
ATOM     31  C   UNL     1     133.668 137.383 158.417  1.00  0.00     0.010 C 
ENDBRANCH  17  20
ENDBRANCH  11  14
ENDBRANCH   4  11
TORSDOF 5
ENDMDL
