MODEL 1
REMARK VINA RESULT:    -5.715      0.000      0.000
REMARK INTER + INTRA:          -7.524
REMARK INTER:                  -7.051
REMARK INTRA:                  -0.473
REMARK UNBOUND:                -0.473
REMARK SMILES N=C(N)Nc1ccc2[nH]c3c(c2c1)C[C@@]1(O)[C@H]2Cc4ccc(O)c5c4[C@@]1(CCN2CC1CC1)[C@H]3O5
REMARK SMILES IDX 5 1 6 2 7 3 8 4 9 5 10 6 11 7 12 8 13 9 14 10 15 11 17 12
REMARK SMILES IDX 18 13 19 14 20 15 21 16 22 17 24 18 25 19 26 20 27 21 28 22
REMARK SMILES IDX 29 23 34 24 35 25 4 27 1 28 2 29 3 30 16 35 30 37 31 38
REMARK SMILES IDX 32 39 33 40 23 41
REMARK H PARENT 9 26 1 31 3 32 3 33 4 34 16 36 23 42
ROOT
ATOM      1  C   UNL     1     139.001 136.186 144.544  1.00  0.00     0.042 A 
ATOM      2  C   UNL     1     138.214 135.529 143.582  1.00  0.00     0.028 A 
ATOM      3  C   UNL     1     136.833 135.341 143.739  1.00  0.00     0.029 A 
ATOM      4  C   UNL     1     136.248 135.814 144.915  1.00  0.00     0.046 A 
ATOM      5  N   UNL     1     134.936 135.783 145.331  1.00  0.00    -0.355 N 
ATOM      6  C   UNL     1     134.832 136.343 146.572  1.00  0.00     0.061 A 
ATOM      7  C   UNL     1     136.081 136.794 146.952  1.00  0.00    -0.012 A 
ATOM      8  C   UNL     1     136.989 136.450 145.912  1.00  0.00     0.005 A 
ATOM      9  C   UNL     1     138.377 136.625 145.720  1.00  0.00     0.036 A 
ATOM     10  C   UNL     1     136.327 137.536 148.230  1.00  0.00     0.076 C 
ATOM     11  C   UNL     1     135.207 137.231 149.275  1.00  0.00     0.098 C 
ATOM     12  C   UNL     1     135.145 138.312 150.428  1.00  0.00     0.094 C 
ATOM     13  C   UNL     1     134.863 139.750 149.870  1.00  0.00     0.058 C 
ATOM     14  C   UNL     1     133.858 139.773 148.744  1.00  0.00    -0.038 A 
ATOM     15  C   UNL     1     133.412 140.944 148.127  1.00  0.00     0.008 A 
ATOM     16  C   UNL     1     132.601 140.880 146.974  1.00  0.00     0.050 A 
ATOM     17  C   UNL     1     132.266 139.646 146.404  1.00  0.00     0.158 A 
ATOM     18  C   UNL     1     132.718 138.498 147.017  1.00  0.00     0.166 A 
ATOM     19  C   UNL     1     133.439 138.573 148.193  1.00  0.00     0.015 A 
ATOM     20  C   UNL     1     133.776 137.201 148.689  1.00  0.00     0.074 C 
ATOM     21  C   UNL     1     132.737 136.769 149.756  1.00  0.00     0.035 C 
ATOM     22  C   UNL     1     133.247 136.885 151.202  1.00  0.00     0.086 C 
ATOM     23  N   UNL     1     134.072 138.063 151.430  1.00  0.00    -0.297 NA
ATOM     24  C   UNL     1     133.557 136.454 147.351  1.00  0.00     0.234 C 
ATOM     25  O   UNL     1     132.602 137.210 146.549  1.00  0.00    -0.479 OA
ATOM     26  H   UNL     1     134.162 135.420 144.788  1.00  0.00     0.166 HD
ENDROOT
BRANCH   1  27
ATOM     27  N   UNL     1     140.391 136.281 144.315  1.00  0.00    -0.327 N 
ATOM     28  N   UNL     1     141.367 135.245 146.226  1.00  0.00    -0.269 NA
ATOM     29  C   UNL     1     141.420 135.837 145.087  1.00  0.00     0.190 C 
ATOM     30  N   UNL     1     142.615 136.096 144.498  1.00  0.00    -0.370 N 
ATOM     31  H   UNL     1     142.307 135.062 146.576  1.00  0.00     0.191 HD
ATOM     32  H   UNL     1     143.399 135.611 144.916  1.00  0.00     0.159 HD
ATOM     33  H   UNL     1     142.602 135.932 143.496  1.00  0.00     0.159 HD
ATOM     34  H   UNL     1     140.637 137.067 143.730  1.00  0.00     0.170 HD
ENDBRANCH   1  27
BRANCH  11  35
ATOM     35  O   UNL     1     135.534 135.940 149.848  1.00  0.00    -0.387 OA
ATOM     36  H   UNL     1     135.834 136.090 150.764  1.00  0.00     0.211 HD
ENDBRANCH  11  35
BRANCH  23  37
ATOM     37  C   UNL     1     134.478 138.254 152.821  1.00  0.00     0.088 C 
BRANCH  37  38
ATOM     38  C   UNL     1     133.813 139.404 153.522  1.00  0.00     0.003 C 
ATOM     39  C   UNL     1     133.053 139.205 154.811  1.00  0.00     0.005 C 
ATOM     40  C   UNL     1     134.382 139.903 154.829  1.00  0.00     0.005 C 
ENDBRANCH  37  38
ENDBRANCH  23  37
BRANCH  17  41
ATOM     41  O   UNL     1     131.539 139.566 145.257  1.00  0.00    -0.504 OA
ATOM     42  H   UNL     1     130.597 139.604 145.484  1.00  0.00     0.293 HD
ENDBRANCH  17  41
TORSDOF 5
ENDMDL
