MODEL 1
REMARK VINA RESULT:    -6.664      0.000      0.000
REMARK INTER + INTRA:          -8.678
REMARK INTER:                  -7.833
REMARK INTRA:                  -0.845
REMARK UNBOUND:                -0.845
REMARK SMILES Cc1nc(-c2cnn(C)c2-c2ccc(C(F)(F)F)cn2)c2c(N3CCC3)ncnn12
REMARK SMILES IDX 11 1 12 2 13 3 14 4 19 5 20 6 10 7 5 8 6 9 7 10 8 11 9 12
REMARK SMILES IDX 4 13 2 14 3 15 30 16 29 17 21 18 28 19 22 20 27 21 23 22
REMARK SMILES IDX 24 23 26 24 25 25 1 26 15 27 16 28 17 29 18 30
REMARK H PARENT
ROOT
ATOM      1  C   UNL     1     129.923 136.584 154.176  1.00  0.00     0.089 A 
ATOM      2  C   UNL     1     129.711 137.954 154.271  1.00  0.00     0.031 A 
ATOM      3  C   UNL     1     128.469 138.418 154.704  1.00  0.00     0.017 A 
ATOM      4  C   UNL     1     127.462 137.505 155.023  1.00  0.00     0.074 A 
ATOM      5  C   UNL     1     127.761 136.159 154.892  1.00  0.00     0.124 A 
ATOM      6  N   UNL     1     128.955 135.683 154.466  1.00  0.00    -0.254 NA
ENDROOT
BRANCH   1   7
ATOM      7  C   UNL     1     131.195 136.009 153.740  1.00  0.00     0.096 A 
ATOM      8  C   UNL     1     132.505 136.254 154.135  1.00  0.00     0.050 A 
ATOM      9  C   UNL     1     133.303 135.382 153.371  1.00  0.00     0.146 A 
ATOM     10  N   UNL     1     132.586 134.662 152.510  1.00  0.00    -0.180 NA
ATOM     11  N   UNL     1     131.312 135.032 152.769  1.00  0.00    -0.266 N 
ATOM     12  C   UNL     1     130.256 134.415 151.997  1.00  0.00     0.174 C 
BRANCH   8  13
ATOM     13  C   UNL     1     133.017 137.149 155.165  1.00  0.00     0.106 A 
ATOM     14  C   UNL     1     133.398 137.773 157.183  1.00  0.00     0.128 A 
ATOM     15  N   UNL     1     132.772 136.845 156.484  1.00  0.00    -0.231 NA
ATOM     16  N   UNL     1     134.018 138.674 156.352  1.00  0.00    -0.212 N 
ATOM     17  N   UNL     1     134.765 139.735 156.709  1.00  0.00    -0.154 NA
ATOM     18  C   UNL     1     133.747 138.314 155.066  1.00  0.00     0.136 A 
ATOM     19  C   UNL     1     135.217 140.410 155.700  1.00  0.00     0.247 C 
ATOM     20  C   UNL     1     134.244 139.148 154.013  1.00  0.00     0.158 C 
ATOM     21  N   UNL     1     134.979 140.164 154.373  1.00  0.00    -0.215 NA
ATOM     22  N   UNL     1     133.961 138.893 152.680  1.00  0.00    -0.355 N 
ATOM     23  C   UNL     1     132.663 139.350 152.229  1.00  0.00     0.120 C 
ATOM     24  C   UNL     1     134.612 139.696 151.670  1.00  0.00     0.120 C 
ATOM     25  C   UNL     1     133.319 139.553 150.860  1.00  0.00     0.043 C 
ATOM     26  C   UNL     1     133.465 137.874 158.659  1.00  0.00     0.090 C 
ENDBRANCH   8  13
ENDBRANCH   1   7
BRANCH   4  27
ATOM     27  C   UNL     1     126.118 137.930 155.523  1.00  0.00     0.417 C 
ATOM     28  F   UNL     1     125.116 137.709 154.626  1.00  0.00    -0.166 F 
ATOM     29  F   UNL     1     125.746 137.276 156.659  1.00  0.00    -0.166 F 
ATOM     30  F   UNL     1     126.067 139.256 155.821  1.00  0.00    -0.166 F 
ENDBRANCH   4  27
TORSDOF 3
ENDMDL
