MODEL 1
REMARK VINA RESULT:    -4.773      0.000      0.000
REMARK INTER + INTRA:          -5.926
REMARK INTER:                  -5.470
REMARK INTRA:                  -0.455
REMARK UNBOUND:                -0.455
REMARK SMILES NC(=O)c1sc(-c2ccsc2)cc1N
REMARK SMILES IDX 4 1 5 2 6 3 12 4 13 5 2 6 1 7 3 8 14 11 7 14 8 15 11 16 9 17
REMARK SMILES IDX 10 18
REMARK H PARENT 1 9 1 10 14 12 14 13
ROOT
ATOM      1  C   UNL     1     134.127 137.166 152.583  1.00  0.00     0.115 A 
ATOM      2  S   UNL     1     132.877 136.470 153.536  1.00  0.00    -0.128 S 
ATOM      3  C   UNL     1     132.361 137.989 154.119  1.00  0.00     0.038 A 
ATOM      4  C   UNL     1     133.121 139.016 153.603  1.00  0.00     0.046 A 
ATOM      5  C   UNL     1     134.134 138.541 152.727  1.00  0.00     0.056 A 
ENDROOT
BRANCH   1   6
ATOM      6  C   UNL     1     135.004 136.350 151.759  1.00  0.00     0.260 C 
ATOM      7  N   UNL     1     134.902 134.991 151.896  1.00  0.00    -0.365 N 
ATOM      8  O   UNL     1     135.822 136.798 150.957  1.00  0.00    -0.269 OA
ATOM      9  H   UNL     1     134.267 134.567 152.556  1.00  0.00     0.159 HD
ATOM     10  H   UNL     1     135.519 134.412 151.346  1.00  0.00     0.159 HD
ENDBRANCH   1   6
BRANCH   5  11
ATOM     11  N   UNL     1     135.007 139.365 152.113  1.00  0.00    -0.397 N 
ATOM     12  H   UNL     1     135.892 139.605 152.568  1.00  0.00     0.156 HD
ATOM     13  H   UNL     1     135.005 139.528 151.112  1.00  0.00     0.156 HD
ENDBRANCH   5  11
BRANCH   3  14
ATOM     14  C   UNL     1     131.159 138.175 155.122  1.00  0.00     0.002 A 
ATOM     15  C   UNL     1     129.776 138.069 154.779  1.00  0.00     0.021 A 
ATOM     16  C   UNL     1     131.327 138.465 156.460  1.00  0.00     0.074 A 
ATOM     17  C   UNL     1     128.951 138.281 155.862  1.00  0.00     0.065 A 
ATOM     18  S   UNL     1     129.834 138.606 157.288  1.00  0.00    -0.152 S 
ENDBRANCH   3  14
TORSDOF 3
ENDMDL
