MODEL 1
REMARK VINA RESULT:    -6.543      0.000      0.000
REMARK INTER + INTRA:         -12.829
REMARK INTER:                 -11.134
REMARK INTRA:                  -1.696
REMARK UNBOUND:                -1.696
REMARK SMILES C#CC[C@H](Cc1cnc2nc(N)nc(N)c2n1)c1ccc(C(=O)N[C@@H](CCC(=O)O)C(=O)O)cc1
REMARK SMILES IDX 22 1 23 2 24 3 21 5 18 6 19 7 35 8 20 9 34 10 4 11 3 12 2 13
REMARK SMILES IDX 1 14 5 15 6 16 7 17 17 18 8 19 16 20 9 21 14 22 10 23 13 24
REMARK SMILES IDX 11 25 15 26 12 29 25 32 26 33 27 34 28 35 29 36 30 37 31 39
REMARK SMILES IDX 32 40 33 41
REMARK H PARENT 24 4 15 27 15 28 12 30 12 31 30 38 33 42
ROOT
ATOM      1  C   UNL     1     134.058 136.126 148.800  1.00  0.00     0.251 C 
ATOM      2  O   UNL     1     134.054 134.909 148.661  1.00  0.00    -0.269 OA
ATOM      3  N   UNL     1     134.494 137.001 147.823  1.00  0.00    -0.339 N 
ATOM      4  H   UNL     1     134.865 137.881 148.156  1.00  0.00     0.164 HD
ENDROOT
BRANCH   1   5
ATOM      5  C   UNL     1     133.635 136.739 150.091  1.00  0.00     0.039 A 
ATOM      6  C   UNL     1     132.835 137.817 152.573  1.00  0.00    -0.044 A 
ATOM      7  C   UNL     1     133.192 136.464 152.459  1.00  0.00     0.005 A 
ATOM      8  C   UNL     1     132.866 138.616 151.419  1.00  0.00     0.005 A 
ATOM      9  C   UNL     1     133.587 135.929 151.230  1.00  0.00     0.014 A 
ATOM     10  C   UNL     1     133.260 138.083 150.188  1.00  0.00     0.014 A 
BRANCH   6  11
ATOM     11  C   UNL     1     132.399 138.364 153.930  1.00  0.00     0.037 C 
BRANCH  11  12
ATOM     12  C   UNL     1     133.549 139.112 154.643  1.00  0.00     0.098 C 
ATOM     13  C   UNL     1     133.747 138.729 156.052  1.00  0.00    -0.106 C 
ATOM     14  C   UNL     1     133.916 138.430 157.202  1.00  0.00     0.004 C 
ENDBRANCH  11  12
BRANCH  11  15
ATOM     15  C   UNL     1     131.702 137.290 154.799  1.00  0.00     0.067 C 
BRANCH  15  16
ATOM     16  C   UNL     1     130.202 137.382 154.748  1.00  0.00     0.060 A 
ATOM     17  C   UNL     1     129.553 138.583 154.527  1.00  0.00     0.137 A 
ATOM     18  N   UNL     1     129.492 136.256 154.960  1.00  0.00    -0.244 NA
ATOM     19  N   UNL     1     128.205 138.695 154.507  1.00  0.00    -0.233 NA
ATOM     20  C   UNL     1     128.129 136.369 154.918  1.00  0.00     0.150 A 
ATOM     21  C   UNL     1     127.477 137.588 154.698  1.00  0.00     0.185 A 
ATOM     22  C   UNL     1     127.259 135.303 155.124  1.00  0.00     0.157 A 
ATOM     23  N   UNL     1     126.154 137.714 154.681  1.00  0.00    -0.191 NA
ATOM     24  N   UNL     1     125.922 135.409 155.109  1.00  0.00    -0.194 NA
ATOM     25  C   UNL     1     125.428 136.619 154.868  1.00  0.00     0.224 A 
BRANCH  22  26
ATOM     26  N   UNL     1     127.759 134.001 155.297  1.00  0.00    -0.382 N 
ATOM     27  H   UNL     1     127.103 133.298 154.968  1.00  0.00     0.158 HD
ATOM     28  H   UNL     1     128.692 133.937 154.905  1.00  0.00     0.158 HD
ENDBRANCH  22  26
BRANCH  25  29
ATOM     29  N   UNL     1     124.058 136.753 154.851  1.00  0.00    -0.368 N 
ATOM     30  H   UNL     1     123.681 136.524 153.944  1.00  0.00     0.159 HD
ATOM     31  H   UNL     1     123.643 136.312 155.661  1.00  0.00     0.159 HD
ENDBRANCH  25  29
ENDBRANCH  15  16
ENDBRANCH  11  15
ENDBRANCH   6  11
ENDBRANCH   1   5
BRANCH   3  32
ATOM     32  C   UNL     1     135.113 136.475 146.600  1.00  0.00     0.192 C 
BRANCH  32  33
ATOM     33  C   UNL     1     134.294 136.935 145.384  1.00  0.00     0.049 C 
BRANCH  33  34
ATOM     34  C   UNL     1     133.632 135.795 144.604  1.00  0.00     0.125 C 
BRANCH  34  35
ATOM     35  C   UNL     1     133.803 134.460 145.277  1.00  0.00     0.303 C 
ATOM     36  O   UNL     1     134.664 133.628 145.053  1.00  0.00    -0.252 OA
BRANCH  35  37
ATOM     37  O   UNL     1     132.879 134.256 146.235  1.00  0.00    -0.481 OA
ATOM     38  H   UNL     1     132.469 135.136 146.366  1.00  0.00     0.296 HD
ENDBRANCH  35  37
ENDBRANCH  34  35
ENDBRANCH  33  34
ENDBRANCH  32  33
BRANCH  32  39
ATOM     39  C   UNL     1     136.558 136.987 146.483  1.00  0.00     0.326 C 
ATOM     40  O   UNL     1     137.496 136.387 145.980  1.00  0.00    -0.250 OA
BRANCH  39  41
ATOM     41  O   UNL     1     136.732 138.260 146.908  1.00  0.00    -0.480 OA
ATOM     42  H   UNL     1     136.989 138.740 146.093  1.00  0.00     0.296 HD
ENDBRANCH  39  41
ENDBRANCH  32  39
ENDBRANCH   3  32
TORSDOF 14
ENDMDL
