MODEL 1
REMARK VINA RESULT:    -4.990      0.000      0.000
REMARK INTER + INTRA:          -8.232
REMARK INTER:                  -7.032
REMARK INTRA:                  -1.200
REMARK UNBOUND:                -1.200
REMARK SMILES CCCN(CC1CC1)c1nc(C)nc(Nc2c(Cl)cc(Cl)cc2Cl)c1Cl
REMARK SMILES IDX 9 1 10 2 11 3 12 4 13 5 14 6 25 7 26 8 4 9 3 10 2 11 1 12
REMARK SMILES IDX 5 13 6 14 7 15 8 16 15 17 16 19 17 20 23 21 19 22 22 23
REMARK SMILES IDX 20 24 18 25 24 26 21 27
REMARK H PARENT 15 18
ROOT
ATOM      1  C   UNL     1     133.030 137.535 154.375  1.00  0.00     0.153 A 
ATOM      2  N   UNL     1     132.322 136.399 154.193  1.00  0.00    -0.215 NA
ATOM      3  C   UNL     1     132.436 135.784 153.005  1.00  0.00     0.130 A 
ATOM      4  C   UNL     1     131.676 134.511 152.808  1.00  0.00     0.090 C 
ATOM      5  N   UNL     1     133.216 136.203 151.998  1.00  0.00    -0.214 NA
ATOM      6  C   UNL     1     133.907 137.348 152.178  1.00  0.00     0.155 A 
ATOM      7  C   UNL     1     133.840 138.063 153.371  1.00  0.00     0.126 A 
ATOM      8  Cl  UNL     1     134.745 139.524 153.590  1.00  0.00    -0.076 Cl
ENDROOT
BRANCH   1   9
ATOM      9  N   UNL     1     132.932 138.199 155.633  1.00  0.00    -0.355 N 
BRANCH   9  10
ATOM     10  C   UNL     1     131.744 139.073 155.613  1.00  0.00     0.118 C 
BRANCH  10  11
ATOM     11  C   UNL     1     130.539 138.328 156.198  1.00  0.00     0.018 C 
ATOM     12  C   UNL     1     129.383 138.281 155.212  1.00  0.00     0.006 C 
ENDBRANCH  10  11
ENDBRANCH   9  10
BRANCH   9  13
ATOM     13  C   UNL     1     132.921 137.206 156.722  1.00  0.00     0.121 C 
BRANCH  13  14
ATOM     14  C   UNL     1     133.738 137.696 157.886  1.00  0.00     0.008 C 
ATOM     15  C   UNL     1     133.198 137.581 159.290  1.00  0.00     0.006 C 
ATOM     16  C   UNL     1     134.365 136.734 158.866  1.00  0.00     0.006 C 
ENDBRANCH  13  14
ENDBRANCH   9  13
ENDBRANCH   1   9
BRANCH   6  17
ATOM     17  N   UNL     1     134.706 137.845 151.105  1.00  0.00    -0.336 N 
ATOM     18  H   UNL     1     135.496 137.207 150.993  1.00  0.00     0.168 HD
BRANCH  17  19
ATOM     19  C   UNL     1     134.170 138.209 149.839  1.00  0.00     0.078 A 
ATOM     20  C   UNL     1     133.922 137.220 148.866  1.00  0.00     0.067 A 
ATOM     21  C   UNL     1     133.800 139.535 149.535  1.00  0.00     0.067 A 
ATOM     22  C   UNL     1     133.333 137.533 147.640  1.00  0.00     0.043 A 
ATOM     23  C   UNL     1     133.209 139.853 148.307  1.00  0.00     0.043 A 
ATOM     24  C   UNL     1     132.977 138.850 147.371  1.00  0.00     0.044 A 
ATOM     25  Cl  UNL     1     134.344 135.567 149.168  1.00  0.00    -0.082 Cl
ATOM     26  Cl  UNL     1     134.119 140.846 150.621  1.00  0.00    -0.082 Cl
ATOM     27  Cl  UNL     1     132.250 139.244 145.863  1.00  0.00    -0.084 Cl
ENDBRANCH  17  19
ENDBRANCH   6  17
TORSDOF 7
ENDMDL
