MODEL 1
REMARK VINA RESULT:    -5.350      0.000      0.000
REMARK INTER + INTRA:          -5.578
REMARK INTER:                  -5.663
REMARK INTRA:                   0.085
REMARK UNBOUND:                 0.085
REMARK SMILES CN1[C@@H]2CC[C@H]1C=C(c1sccc1Br)C2
REMARK SMILES IDX 1 1 2 2 3 3 4 4 5 5 6 6 7 7 8 8 15 9 9 10 10 11 13 12 11 13
REMARK SMILES IDX 12 14 14 15
REMARK H PARENT
ROOT
ATOM      1  C   UNL     1     127.051 136.700 157.093  1.00  0.00     0.106 C 
ATOM      2  N   UNL     1     128.217 136.699 156.215  1.00  0.00    -0.297 NA
ATOM      3  C   UNL     1     128.721 138.053 155.915  1.00  0.00     0.061 C 
ATOM      4  C   UNL     1     127.778 138.580 154.819  1.00  0.00     0.021 C 
ATOM      5  C   UNL     1     127.192 137.321 154.168  1.00  0.00     0.025 C 
ATOM      6  C   UNL     1     127.932 136.176 154.864  1.00  0.00     0.080 C 
ATOM      7  C   UNL     1     129.249 135.951 154.151  1.00  0.00    -0.003 C 
ATOM      8  C   UNL     1     130.323 136.740 154.384  1.00  0.00    -0.030 C 
ATOM      9  C   UNL     1     130.173 137.880 155.391  1.00  0.00     0.056 C 
ENDROOT
BRANCH   8  10
ATOM     10  C   UNL     1     131.524 136.461 153.655  1.00  0.00     0.044 A 
ATOM     11  S   UNL     1     131.682 134.948 152.838  1.00  0.00    -0.143 S 
ATOM     12  C   UNL     1     132.660 137.223 153.450  1.00  0.00     0.036 A 
ATOM     13  C   UNL     1     133.244 135.332 152.259  1.00  0.00     0.066 A 
ATOM     14  C   UNL     1     133.649 136.585 152.658  1.00  0.00     0.028 A 
ATOM     15  Br  UNL     1     132.951 138.976 154.104  1.00  0.00    -0.049 Br
ENDBRANCH   8  10
TORSDOF 1
ENDMDL
