MODEL 1
REMARK VINA RESULT:    -3.541      0.000      0.000
REMARK INTER + INTRA:          -4.692
REMARK INTER:                  -4.162
REMARK INTRA:                  -0.530
REMARK UNBOUND:                -0.530
REMARK SMILES CN(C)c1nc(N(C)C)nc(N(C)C)n1
REMARK SMILES IDX 4 1 5 2 6 3 10 4 11 5 15 6 2 7 1 8 3 9 7 10 8 11 9 12 12 13
REMARK SMILES IDX 13 14 14 15
REMARK H PARENT
ROOT
ATOM      1  C   UNL     1     130.961 137.810 155.231  1.00  0.00     0.231 A 
ATOM      2  N   UNL     1     131.223 136.650 154.642  1.00  0.00    -0.177 NA
ATOM      3  C   UNL     1     132.373 136.542 153.988  1.00  0.00     0.231 A 
ATOM      4  N   UNL     1     133.248 137.538 153.911  1.00  0.00    -0.177 NA
ATOM      5  C   UNL     1     132.941 138.670 154.532  1.00  0.00     0.231 A 
ATOM      6  N   UNL     1     131.805 138.833 155.200  1.00  0.00    -0.177 NA
ENDROOT
BRANCH   1   7
ATOM      7  N   UNL     1     129.761 137.947 155.943  1.00  0.00    -0.347 N 
ATOM      8  C   UNL     1     128.627 138.347 155.126  1.00  0.00     0.146 C 
ATOM      9  C   UNL     1     129.906 138.618 157.226  1.00  0.00     0.146 C 
ENDBRANCH   1   7
BRANCH   3  10
ATOM     10  N   UNL     1     132.662 135.339 153.331  1.00  0.00    -0.347 N 
ATOM     11  C   UNL     1     133.782 135.416 152.405  1.00  0.00     0.146 C 
ATOM     12  C   UNL     1     131.494 134.598 152.885  1.00  0.00     0.146 C 
ENDBRANCH   3  10
BRANCH   5  13
ATOM     13  N   UNL     1     133.837 139.744 154.458  1.00  0.00    -0.347 N 
ATOM     14  C   UNL     1     134.536 140.026 155.702  1.00  0.00     0.146 C 
ATOM     15  C   UNL     1     134.625 139.790 153.237  1.00  0.00     0.146 C 
ENDBRANCH   5  13
TORSDOF 3
ENDMDL
