MODEL 1
REMARK VINA RESULT:    -5.499      0.000      0.000
REMARK INTER + INTRA:          -8.252
REMARK INTER:                  -7.749
REMARK INTRA:                  -0.503
REMARK UNBOUND:                -0.503
REMARK SMILES O/N=C/c1cc[n+](COC[n+]2ccc(/C=N/O)cc2)cc1
REMARK SMILES IDX 9 1 8 2 7 3 4 4 5 5 21 6 6 7 20 8 3 9 2 10 1 11 10 13 11 14
REMARK SMILES IDX 12 15 19 16 13 17 18 18 14 19 15 20 16 21 17 22
REMARK H PARENT 1 12 17 23
ROOT
ATOM      1  O   UNL     1     133.979 135.148 152.378  1.00  0.00    -0.262 OA
ENDROOT
BRANCH   1   2
ATOM      2  C   UNL     1     132.581 134.944 152.573  1.00  0.00     0.537 C 
BRANCH   2   3
ATOM      3  N   UNL     1     132.091 135.889 153.605  1.00  0.00    -0.180 N 
ATOM      4  C   UNL     1     131.208 137.659 155.528  1.00  0.00     0.008 A 
ATOM      5  C   UNL     1     130.296 137.043 154.680  1.00  0.00     0.080 A 
ATOM      6  C   UNL     1     132.565 137.382 155.402  1.00  0.00     0.080 A 
ATOM      7  C   UNL     1     130.766 136.154 153.718  1.00  0.00     0.311 A 
ATOM      8  C   UNL     1     132.985 136.489 154.428  1.00  0.00     0.311 A 
BRANCH   4   9
ATOM      9  C   UNL     1     130.726 138.601 156.554  1.00  0.00     0.162 C 
ATOM     10  N   UNL     1     129.921 138.210 157.487  1.00  0.00    -0.097 NA
BRANCH  10  11
ATOM     11  O   UNL     1     129.634 139.307 158.308  1.00  0.00    -0.411 OA
ATOM     12  H   UNL     1     130.420 139.370 158.884  1.00  0.00     0.330 HD
ENDBRANCH  10  11
ENDBRANCH   4   9
ENDBRANCH   2   3
ENDBRANCH   1   2
BRANCH   1  13
ATOM     13  C   UNL     1     134.301 135.379 151.008  1.00  0.00     0.537 C 
BRANCH  13  14
ATOM     14  N   UNL     1     134.271 136.837 150.749  1.00  0.00    -0.180 N 
ATOM     15  C   UNL     1     135.353 137.599 151.042  1.00  0.00     0.311 A 
ATOM     16  C   UNL     1     133.160 137.399 150.213  1.00  0.00     0.311 A 
ATOM     17  C   UNL     1     135.344 138.966 150.804  1.00  0.00     0.080 A 
ATOM     18  C   UNL     1     133.101 138.765 149.957  1.00  0.00     0.080 A 
ATOM     19  C   UNL     1     134.206 139.551 150.256  1.00  0.00     0.008 A 
BRANCH  19  20
ATOM     20  C   UNL     1     134.163 140.999 149.986  1.00  0.00     0.162 C 
ATOM     21  N   UNL     1     133.716 141.827 150.874  1.00  0.00    -0.097 NA
BRANCH  21  22
ATOM     22  O   UNL     1     133.794 143.121 150.348  1.00  0.00    -0.411 OA
ATOM     23  H   UNL     1     134.721 143.186 150.045  1.00  0.00     0.330 HD
ENDBRANCH  21  22
ENDBRANCH  19  20
ENDBRANCH  13  14
ENDBRANCH   1  13
TORSDOF 8
ENDMDL
