MODEL 1
REMARK VINA RESULT:    -3.833      0.000      0.000
REMARK INTER + INTRA:          -7.866
REMARK INTER:                  -6.522
REMARK INTRA:                  -1.344
REMARK UNBOUND:                -1.344
REMARK SMILES NCCCNCCCCNCCCN
REMARK SMILES IDX 7 1 6 2 5 3 4 5 3 6 2 7 1 8 8 11 9 12 10 13 11 15 12 16
REMARK SMILES IDX 13 17 14 18
REMARK H PARENT 5 4 1 9 1 10 10 14 14 19 14 20
ROOT
ATOM      1  C   UNL     1     132.961 138.467 155.454  1.00  0.00     0.017 C 
ENDROOT
BRANCH   1   2
ATOM      2  C   UNL     1     132.303 137.587 154.385  1.00  0.00     0.081 C 
BRANCH   2   3
ATOM      3  N   UNL     1     132.871 136.242 154.327  1.00  0.00    -0.317 NA
ATOM      4  H   UNL     1     133.885 136.290 154.164  1.00  0.00     0.122 HD
BRANCH   3   5
ATOM      5  C   UNL     1     132.288 135.418 153.270  1.00  0.00     0.082 C 
BRANCH   5   6
ATOM      6  C   UNL     1     132.692 135.934 151.882  1.00  0.00     0.030 C 
BRANCH   6   7
ATOM      7  C   UNL     1     134.135 135.605 151.480  1.00  0.00     0.079 C 
BRANCH   7   8
ATOM      8  N   UNL     1     134.916 135.020 152.568  1.00  0.00    -0.330 NA
ATOM      9  H   UNL     1     135.826 135.482 152.607  1.00  0.00     0.118 HD
ATOM     10  H   UNL     1     134.458 135.228 153.456  1.00  0.00     0.118 HD
ENDBRANCH   7   8
ENDBRANCH   6   7
ENDBRANCH   5   6
ENDBRANCH   3   5
ENDBRANCH   2   3
ENDBRANCH   1   2
BRANCH   1  11
ATOM     11  C   UNL     1     133.697 139.648 154.816  1.00  0.00     0.017 C 
BRANCH  11  12
ATOM     12  C   UNL     1     134.422 139.219 153.538  1.00  0.00     0.081 C 
BRANCH  12  13
ATOM     13  N   UNL     1     134.371 140.222 152.475  1.00  0.00    -0.317 NA
ATOM     14  H   UNL     1     133.404 140.487 152.288  1.00  0.00     0.122 HD
BRANCH  13  15
ATOM     15  C   UNL     1     135.053 139.821 151.244  1.00  0.00     0.082 C 
BRANCH  15  16
ATOM     16  C   UNL     1     134.159 139.995 150.011  1.00  0.00     0.030 C 
BRANCH  16  17
ATOM     17  C   UNL     1     134.079 141.446 149.528  1.00  0.00     0.079 C 
BRANCH  17  18
ATOM     18  N   UNL     1     133.775 142.398 150.590  1.00  0.00    -0.330 NA
ATOM     19  H   UNL     1     133.085 143.073 150.261  1.00  0.00     0.118 HD
ATOM     20  H   UNL     1     133.347 141.923 151.383  1.00  0.00     0.118 HD
ENDBRANCH  17  18
ENDBRANCH  16  17
ENDBRANCH  15  16
ENDBRANCH  13  15
ENDBRANCH  12  13
ENDBRANCH  11  12
ENDBRANCH   1  11
TORSDOF 13
ENDMDL
