MODEL 1
REMARK VINA RESULT:    -5.349      0.000      0.000
REMARK INTER + INTRA:          -6.546
REMARK INTER:                  -6.131
REMARK INTRA:                  -0.414
REMARK UNBOUND:                -0.414
REMARK SMILES CC(=O)c1c(O)c(C)c(O)c2c1OC1=CC(=O)C(=C(C)O)C(=O)[C@]12C
REMARK SMILES IDX 4 1 5 2 7 3 8 4 9 5 11 6 12 7 13 8 14 9 15 10 16 11 17 12
REMARK SMILES IDX 18 13 19 14 20 15 22 16 23 17 24 18 25 19 2 20 3 21 1 22
REMARK SMILES IDX 6 23 10 25 21 27
REMARK H PARENT 6 24 10 26 21 28
ROOT
ATOM      1  C   UNL     1     133.256 138.427 146.810  1.00  0.00     0.103 A 
ATOM      2  C   UNL     1     133.349 137.229 146.067  1.00  0.00     0.136 A 
ATOM      3  C   UNL     1     133.646 135.983 146.674  1.00  0.00     0.034 A 
ATOM      4  C   UNL     1     133.752 134.738 145.833  1.00  0.00     0.052 C 
ATOM      5  C   UNL     1     133.807 135.936 148.063  1.00  0.00     0.130 A 
ATOM      6  C   UNL     1     133.699 137.097 148.806  1.00  0.00     0.059 A 
ATOM      7  C   UNL     1     133.439 138.323 148.180  1.00  0.00     0.149 A 
ATOM      8  O   UNL     1     133.370 139.346 149.104  1.00  0.00    -0.459 OA
ATOM      9  C   UNL     1     133.452 138.770 150.368  1.00  0.00     0.126 C 
ATOM     10  C   UNL     1     133.033 139.401 151.471  1.00  0.00     0.096 C 
ATOM     11  C   UNL     1     132.880 138.637 152.735  1.00  0.00     0.196 C 
ATOM     12  O   UNL     1     132.780 139.244 153.794  1.00  0.00    -0.289 OA
ATOM     13  C   UNL     1     132.820 137.144 152.598  1.00  0.00     0.104 C 
ATOM     14  C   UNL     1     132.782 136.308 153.655  1.00  0.00     0.104 C 
ATOM     15  C   UNL     1     132.728 136.745 155.093  1.00  0.00     0.087 C 
ATOM     16  C   UNL     1     132.872 136.587 151.197  1.00  0.00     0.188 C 
ATOM     17  O   UNL     1     132.113 135.694 150.829  1.00  0.00    -0.292 OA
ATOM     18  C   UNL     1     133.856 137.307 150.283  1.00  0.00     0.121 C 
ATOM     19  C   UNL     1     135.309 137.080 150.718  1.00  0.00     0.034 C 
ENDROOT
BRANCH   1  20
ATOM     20  C   UNL     1     132.963 139.716 146.117  1.00  0.00     0.167 C 
ATOM     21  O   UNL     1     133.747 140.111 145.251  1.00  0.00    -0.294 OA
ATOM     22  C   UNL     1     131.741 140.517 146.471  1.00  0.00     0.094 C 
ENDBRANCH   1  20
BRANCH   2  23
ATOM     23  O   UNL     1     133.156 137.209 144.704  1.00  0.00    -0.507 OA
ATOM     24  H   UNL     1     133.836 137.785 144.282  1.00  0.00     0.293 HD
ENDBRANCH   2  23
BRANCH   5  25
ATOM     25  O   UNL     1     134.091 134.784 148.727  1.00  0.00    -0.507 OA
ATOM     26  H   UNL     1     133.495 134.726 149.494  1.00  0.00     0.293 HD
ENDBRANCH   5  25
BRANCH  14  27
ATOM     27  O   UNL     1     132.837 134.936 153.460  1.00  0.00    -0.512 OA
ATOM     28  H   UNL     1     133.669 134.583 153.819  1.00  0.00     0.293 HD
ENDBRANCH  14  27
TORSDOF 4
ENDMDL
