MODEL 1
REMARK VINA RESULT:    -4.982      0.000      0.000
REMARK INTER + INTRA:         -12.667
REMARK INTER:                  -9.059
REMARK INTRA:                  -3.609
REMARK UNBOUND:                -3.609
REMARK SMILES C/C=C1\[C@H](O[C@H]2O[C@@H](CO)[C@@H](O)[C@@H](O)[C@@H]2O)OC=C(C(=O)OC)[C@H]1CC(=O)OCCc1ccc(O)c(O)c1
REMARK SMILES IDX 26 1 27 2 25 3 24 4 2 5 3 6 4 7 17 8 19 9 18 10 1 11 5 12
REMARK SMILES IDX 6 13 7 14 15 15 8 16 13 17 11 18 16 19 9 21 10 22 14 24
REMARK SMILES IDX 12 26 20 28 21 29 22 30 23 31 28 32 29 33 30 34 31 35 32 36
REMARK SMILES IDX 38 37 33 38 36 39 34 40 37 41 35 43
REMARK H PARENT 16 20 10 23 14 25 12 27 37 42 35 44
ROOT
ATOM      1  C   UNL     1     136.267 139.188 150.209  1.00  0.00     0.306 C 
ATOM      2  O   UNL     1     137.255 139.843 150.507  1.00  0.00    -0.252 OA
ENDROOT
BRANCH   1   3
ATOM      3  C   UNL     1     136.258 137.711 149.878  1.00  0.00     0.136 C 
BRANCH   3   4
ATOM      4  C   UNL     1     135.086 137.312 148.957  1.00  0.00     0.073 C 
ATOM      5  C   UNL     1     136.724 137.240 146.971  1.00  0.00    -0.024 C 
ATOM      6  C   UNL     1     135.473 137.130 147.471  1.00  0.00     0.002 C 
ATOM      7  C   UNL     1     134.247 136.754 146.650  1.00  0.00     0.337 C 
ATOM      8  O   UNL     1     133.674 135.515 147.110  1.00  0.00    -0.468 OA
ATOM      9  C   UNL     1     134.282 136.095 149.375  1.00  0.00     0.080 C 
ATOM     10  C   UNL     1     133.672 135.313 148.467  1.00  0.00     0.202 C 
ATOM     11  C   UNL     1     137.172 137.083 145.550  1.00  0.00     0.036 C 
BRANCH   7  12
ATOM     12  O   UNL     1     133.315 137.829 146.752  1.00  0.00    -0.307 OA
BRANCH  12  13
ATOM     13  C   UNL     1     132.556 138.009 145.563  1.00  0.00     0.286 C 
ATOM     14  O   UNL     1     131.867 139.264 145.619  1.00  0.00    -0.341 OA
ATOM     15  C   UNL     1     133.445 137.902 144.297  1.00  0.00     0.202 C 
ATOM     16  C   UNL     1     132.705 140.434 145.624  1.00  0.00     0.178 C 
ATOM     17  C   UNL     1     133.601 139.267 143.611  1.00  0.00     0.179 C 
ATOM     18  C   UNL     1     133.910 140.328 144.666  1.00  0.00     0.177 C 
BRANCH  15  19
ATOM     19  O   UNL     1     132.887 136.978 143.343  1.00  0.00    -0.385 OA
ATOM     20  H   UNL     1     132.336 137.523 142.749  1.00  0.00     0.211 HD
ENDBRANCH  15  19
BRANCH  16  21
ATOM     21  C   UNL     1     133.063 140.863 147.051  1.00  0.00     0.191 C 
BRANCH  21  22
ATOM     22  O   UNL     1     134.294 140.264 147.453  1.00  0.00    -0.394 OA
ATOM     23  H   UNL     1     134.281 139.359 147.094  1.00  0.00     0.210 HD
ENDBRANCH  21  22
ENDBRANCH  16  21
BRANCH  17  24
ATOM     24  O   UNL     1     134.678 139.175 142.660  1.00  0.00    -0.387 OA
ATOM     25  H   UNL     1     135.404 139.732 142.997  1.00  0.00     0.211 HD
ENDBRANCH  17  24
BRANCH  18  26
ATOM     26  O   UNL     1     135.126 139.953 145.330  1.00  0.00    -0.387 OA
ATOM     27  H   UNL     1     135.653 139.451 144.681  1.00  0.00     0.211 HD
ENDBRANCH  18  26
ENDBRANCH  12  13
ENDBRANCH   7  12
BRANCH   9  28
ATOM     28  C   UNL     1     134.167 135.683 150.788  1.00  0.00     0.337 C 
ATOM     29  O   UNL     1     135.125 135.469 151.513  1.00  0.00    -0.246 OA
BRANCH  28  30
ATOM     30  O   UNL     1     132.860 135.602 151.147  1.00  0.00    -0.466 OA
ATOM     31  C   UNL     1     132.646 134.980 152.414  1.00  0.00     0.282 C 
ENDBRANCH  28  30
ENDBRANCH   9  28
ENDBRANCH   3   4
ENDBRANCH   1   3
BRANCH   1  32
ATOM     32  O   UNL     1     134.991 139.666 150.175  1.00  0.00    -0.465 OA
BRANCH  32  33
ATOM     33  C   UNL     1     134.377 139.907 151.451  1.00  0.00     0.237 C 
BRANCH  33  34
ATOM     34  C   UNL     1     132.957 139.338 151.519  1.00  0.00     0.077 C 
BRANCH  34  35
ATOM     35  C   UNL     1     132.593 138.843 152.901  1.00  0.00    -0.041 A 
ATOM     36  C   UNL     1     133.594 138.362 153.764  1.00  0.00     0.008 A 
ATOM     37  C   UNL     1     131.256 138.838 153.328  1.00  0.00     0.054 A 
ATOM     38  C   UNL     1     133.269 137.889 155.037  1.00  0.00     0.050 A 
ATOM     39  C   UNL     1     130.943 138.365 154.598  1.00  0.00     0.157 A 
ATOM     40  C   UNL     1     131.945 137.895 155.443  1.00  0.00     0.157 A 
BRANCH  39  41
ATOM     41  O   UNL     1     129.657 138.340 155.064  1.00  0.00    -0.504 OA
ATOM     42  H   UNL     1     129.167 137.668 154.560  1.00  0.00     0.293 HD
ENDBRANCH  39  41
BRANCH  40  43
ATOM     43  O   UNL     1     131.626 137.431 156.687  1.00  0.00    -0.504 OA
ATOM     44  H   UNL     1     132.094 136.576 156.754  1.00  0.00     0.293 HD
ENDBRANCH  40  43
ENDBRANCH  34  35
ENDBRANCH  33  34
ENDBRANCH  32  33
ENDBRANCH   1  32
TORSDOF 17
ENDMDL
