MODEL 1
REMARK VINA RESULT:    -7.077      0.000      0.000
REMARK INTER + INTRA:          -7.077
REMARK INTER:                  -7.077
REMARK INTRA:                   0.000
REMARK UNBOUND:                 0.000
REMARK SMILES FC1(F)C(F)(F)C(F)(F)C2(F)C(F)(F)C(F)(F)C(F)(F)C(F)(F)C2(F)C1(F)F
REMARK SMILES IDX 5 1 4 2 6 3 2 4 1 5 3 6 26 7 27 8 28 9 24 10 25 11 21 12
REMARK SMILES IDX 22 13 23 14 18 15 19 16 20 17 15 18 16 19 17 20 12 21 13 22
REMARK SMILES IDX 14 23 10 24 11 25 7 26 8 27 9 28
REMARK H PARENT
ROOT
ATOM      1  F   UNL     1     133.163 137.121 148.797  1.00  0.00    -0.192 F 
ATOM      2  C   UNL     1     134.106 136.388 149.450  1.00  0.00     0.382 C 
ATOM      3  F   UNL     1     134.268 135.254 148.725  1.00  0.00    -0.192 F 
ATOM      4  C   UNL     1     135.367 137.189 149.545  1.00  0.00     0.382 C 
ATOM      5  F   UNL     1     136.258 136.522 150.329  1.00  0.00    -0.192 F 
ATOM      6  F   UNL     1     135.971 137.345 148.340  1.00  0.00    -0.192 F 
ATOM      7  C   UNL     1     135.050 138.554 150.160  1.00  0.00     0.359 C 
ATOM      8  F   UNL     1     136.230 139.069 150.588  1.00  0.00    -0.195 F 
ATOM      9  F   UNL     1     134.615 139.419 149.200  1.00  0.00    -0.195 F 
ATOM     10  C   UNL     1     133.977 138.527 151.267  1.00  0.00     0.295 C 
ATOM     11  F   UNL     1     132.747 138.717 150.684  1.00  0.00    -0.226 F 
ATOM     12  C   UNL     1     134.198 139.644 152.309  1.00  0.00     0.359 C 
ATOM     13  F   UNL     1     135.502 139.999 152.424  1.00  0.00    -0.195 F 
ATOM     14  F   UNL     1     133.568 140.759 151.843  1.00  0.00    -0.195 F 
ATOM     15  C   UNL     1     133.712 139.304 153.720  1.00  0.00     0.382 C 
ATOM     16  F   UNL     1     134.655 138.571 154.373  1.00  0.00    -0.192 F 
ATOM     17  F   UNL     1     133.550 140.438 154.445  1.00  0.00    -0.192 F 
ATOM     18  C   UNL     1     132.451 138.504 153.625  1.00  0.00     0.382 C 
ATOM     19  F   UNL     1     131.848 138.348 154.830  1.00  0.00    -0.192 F 
ATOM     20  F   UNL     1     131.560 139.171 152.842  1.00  0.00    -0.192 F 
ATOM     21  C   UNL     1     132.769 137.138 153.011  1.00  0.00     0.359 C 
ATOM     22  F   UNL     1     131.588 136.624 152.582  1.00  0.00    -0.195 F 
ATOM     23  F   UNL     1     133.203 136.274 153.971  1.00  0.00    -0.195 F 
ATOM     24  C   UNL     1     133.841 137.166 151.903  1.00  0.00     0.295 C 
ATOM     25  F   UNL     1     135.071 136.976 152.487  1.00  0.00    -0.226 F 
ATOM     26  C   UNL     1     133.621 136.049 150.862  1.00  0.00     0.359 C 
ATOM     27  F   UNL     1     134.251 134.935 151.328  1.00  0.00    -0.195 F 
ATOM     28  F   UNL     1     132.316 135.694 150.747  1.00  0.00    -0.195 F 
ENDROOT
TORSDOF 0
ENDMDL
