MODEL 1
REMARK VINA RESULT:    -5.852      0.000      0.000
REMARK INTER + INTRA:          -6.395
REMARK INTER:                  -6.707
REMARK INTRA:                   0.312
REMARK UNBOUND:                 0.312
REMARK SMILES CC(C)(C)c1cc(C=C(C#N)C#N)cc(Br)c1O
REMARK SMILES IDX 5 1 6 2 7 3 14 4 15 5 16 6 17 7 2 8 1 9 3 10 4 11 18 12 8 14
REMARK SMILES IDX 9 15 10 16 12 17 11 18 13 19
REMARK H PARENT 18 13
ROOT
ATOM      1  C   UNL     1     129.155 137.322 155.037  1.00  0.00     0.001 A 
ATOM      2  C   UNL     1     130.364 138.054 155.046  1.00  0.00     0.016 A 
ATOM      3  C   UNL     1     131.532 137.583 154.423  1.00  0.00    -0.022 A 
ATOM      4  C   UNL     1     131.513 136.361 153.753  1.00  0.00     0.027 A 
ATOM      5  C   UNL     1     130.339 135.616 153.727  1.00  0.00     0.060 A 
ATOM      6  Br  UNL     1     130.342 133.954 152.809  1.00  0.00    -0.047 Br
ATOM      7  C   UNL     1     129.177 136.086 154.360  1.00  0.00     0.133 A 
ENDROOT
BRANCH   1   8
ATOM      8  C   UNL     1     127.886 137.860 155.739  1.00  0.00    -0.009 C 
ATOM      9  C   UNL     1     126.999 138.629 154.735  1.00  0.00     0.016 C 
ATOM     10  C   UNL     1     128.272 138.786 156.915  1.00  0.00     0.016 C 
ATOM     11  C   UNL     1     126.990 136.748 156.341  1.00  0.00     0.016 C 
ENDBRANCH   1   8
BRANCH   7  12
ATOM     12  O   UNL     1     128.037 135.327 154.316  1.00  0.00    -0.506 OA
ATOM     13  H   UNL     1     127.624 135.354 155.199  1.00  0.00     0.293 HD
ENDBRANCH   7  12
BRANCH   3  14
ATOM     14  C   UNL     1     132.746 138.410 154.467  1.00  0.00     0.039 C 
ATOM     15  C   UNL     1     133.337 139.003 153.410  1.00  0.00     0.130 C 
ATOM     16  C   UNL     1     132.833 138.887 152.083  1.00  0.00     0.111 C 
ATOM     17  C   UNL     1     134.522 139.765 153.618  1.00  0.00     0.111 C 
ATOM     18  N   UNL     1     132.415 138.799 151.006  1.00  0.00    -0.192 NA
ATOM     19  N   UNL     1     135.485 140.382 153.813  1.00  0.00    -0.192 NA
ENDBRANCH   3  14
TORSDOF 3
ENDMDL
