MODEL 1
REMARK VINA RESULT:    -6.355      0.000      0.000
REMARK INTER + INTRA:          -7.810
REMARK INTER:                  -7.470
REMARK INTRA:                  -0.341
REMARK UNBOUND:                -0.341
REMARK SMILES O=C1N=C(NCc2cccs2)S/C1=C\c1ccc2ncccc2c1
REMARK SMILES IDX 1 1 2 2 3 3 4 4 5 5 12 6 13 7 14 8 15 10 16 11 24 12 17 13
REMARK SMILES IDX 23 14 18 15 22 16 19 17 21 18 20 19 6 20 7 21 8 22 11 23
REMARK SMILES IDX 9 24 10 25
REMARK H PARENT 5 9
ROOT
ATOM      1  O   UNL     1     134.123 134.618 150.941  1.00  0.00    -0.266 OA
ATOM      2  C   UNL     1     133.907 135.818 150.855  1.00  0.00     0.286 C 
ATOM      3  N   UNL     1     134.295 136.616 149.802  1.00  0.00    -0.184 NA
ATOM      4  C   UNL     1     133.943 137.848 149.952  1.00  0.00     0.170 C 
ATOM      5  N   UNL     1     134.170 138.881 149.097  1.00  0.00    -0.359 N 
ATOM      6  S   UNL     1     133.071 138.240 151.414  1.00  0.00    -0.046 SA
ATOM      7  C   UNL     1     133.170 136.595 151.897  1.00  0.00     0.083 C 
ATOM      8  C   UNL     1     132.707 136.026 153.019  1.00  0.00     0.029 C 
ATOM      9  H   UNL     1     133.594 139.698 149.265  1.00  0.00     0.163 HD
ENDROOT
BRANCH   8  10
ATOM     10  C   UNL     1     131.988 136.712 154.095  1.00  0.00    -0.024 A 
ATOM     11  C   UNL     1     132.665 137.282 155.173  1.00  0.00     0.010 A 
ATOM     12  C   UNL     1     130.596 136.825 154.031  1.00  0.00     0.018 A 
ATOM     13  C   UNL     1     131.952 137.943 156.181  1.00  0.00     0.029 A 
ATOM     14  C   UNL     1     129.885 137.490 155.048  1.00  0.00     0.001 A 
ATOM     15  C   UNL     1     130.570 138.058 156.142  1.00  0.00     0.070 A 
ATOM     16  C   UNL     1     128.489 137.612 155.011  1.00  0.00     0.012 A 
ATOM     17  N   UNL     1     129.932 138.703 157.135  1.00  0.00    -0.256 NA
ATOM     18  C   UNL     1     127.828 138.278 156.036  1.00  0.00     0.021 A 
ATOM     19  C   UNL     1     128.587 138.800 157.066  1.00  0.00     0.112 A 
ENDBRANCH   8  10
BRANCH   5  20
ATOM     20  C   UNL     1     134.469 138.656 147.696  1.00  0.00     0.161 C 
BRANCH  20  21
ATOM     21  C   UNL     1     133.554 139.388 146.760  1.00  0.00     0.024 A 
ATOM     22  C   UNL     1     132.933 140.608 146.955  1.00  0.00     0.017 A 
ATOM     23  S   UNL     1     133.184 138.734 145.220  1.00  0.00    -0.147 S 
ATOM     24  C   UNL     1     132.143 140.998 145.837  1.00  0.00     0.012 A 
ATOM     25  C   UNL     1     132.190 140.067 144.822  1.00  0.00     0.065 A 
ENDBRANCH  20  21
ENDBRANCH   5  20
TORSDOF 3
ENDMDL
