MODEL 1
REMARK VINA RESULT:    -5.623      0.000      0.000
REMARK INTER + INTRA:          -9.727
REMARK INTER:                  -8.253
REMARK INTRA:                  -1.474
REMARK UNBOUND:                -1.474
REMARK SMILES N=C(NCCc1ccc(I)cc1)SCCCc1cnc[nH]1
REMARK SMILES IDX 13 1 2 2 1 3 3 4 4 7 5 8 6 9 7 10 12 11 8 12 11 13 9 14
REMARK SMILES IDX 10 15 14 16 15 17 16 18 17 19 18 20 21 21 19 22 20 23
REMARK H PARENT 1 5 3 6 21 24
ROOT
ATOM      1  S   UNL     1     134.654 139.685 152.757  1.00  0.00    -0.089 SA
ENDROOT
BRANCH   1   2
ATOM      2  C   UNL     1     133.215 139.007 153.459  1.00  0.00     0.153 C 
ATOM      3  N   UNL     1     132.165 138.939 152.726  1.00  0.00    -0.279 NA
ATOM      4  N   UNL     1     133.331 138.586 154.742  1.00  0.00    -0.365 N 
ATOM      5  H   UNL     1     132.413 139.326 151.808  1.00  0.00     0.190 HD
ATOM      6  H   UNL     1     134.287 138.430 155.043  1.00  0.00     0.162 HD
BRANCH   4   7
ATOM      7  C   UNL     1     132.361 137.687 155.348  1.00  0.00     0.119 C 
BRANCH   7   8
ATOM      8  C   UNL     1     131.268 138.445 156.111  1.00  0.00     0.056 C 
BRANCH   8   9
ATOM      9  C   UNL     1     129.871 137.979 155.764  1.00  0.00    -0.046 A 
ATOM     10  C   UNL     1     129.641 137.212 154.614  1.00  0.00     0.005 A 
ATOM     11  C   UNL     1     128.785 138.332 156.577  1.00  0.00     0.005 A 
ATOM     12  C   UNL     1     128.347 136.802 154.284  1.00  0.00     0.015 A 
ATOM     13  C   UNL     1     127.491 137.926 156.248  1.00  0.00     0.015 A 
ATOM     14  C   UNL     1     127.277 137.162 155.102  1.00  0.00     0.013 A 
ATOM     15  I   UNL     1     125.351 136.557 154.609  1.00  0.00    -0.044 I 
ENDBRANCH   8   9
ENDBRANCH   7   8
ENDBRANCH   4   7
ENDBRANCH   1   2
BRANCH   1  16
ATOM     16  C   UNL     1     134.162 139.562 151.008  1.00  0.00     0.078 C 
BRANCH  16  17
ATOM     17  C   UNL     1     135.039 138.583 150.229  1.00  0.00     0.018 C 
BRANCH  17  18
ATOM     18  C   UNL     1     134.292 137.324 149.776  1.00  0.00     0.056 C 
BRANCH  18  19
ATOM     19  C   UNL     1     134.019 136.416 150.924  1.00  0.00     0.034 A 
ATOM     20  C   UNL     1     134.854 135.700 151.754  1.00  0.00     0.134 A 
ATOM     21  N   UNL     1     132.754 136.130 151.374  1.00  0.00    -0.348 N 
ATOM     22  N   UNL     1     134.133 134.993 152.680  1.00  0.00    -0.245 NA
ATOM     23  C   UNL     1     132.876 135.270 152.428  1.00  0.00     0.196 A 
ATOM     24  H   UNL     1     131.886 136.485 150.997  1.00  0.00     0.167 HD
ENDBRANCH  18  19
ENDBRANCH  17  18
ENDBRANCH  16  17
ENDBRANCH   1  16
TORSDOF 8
ENDMDL
