MODEL 1
REMARK VINA RESULT:    -4.893      0.000      0.000
REMARK INTER + INTRA:          -6.563
REMARK INTER:                  -6.037
REMARK INTRA:                  -0.526
REMARK UNBOUND:                -0.526
REMARK SMILES C/C=C/c1cc(OC)c(OC)cc1OC
REMARK SMILES IDX 4 1 5 2 6 3 9 4 12 5 13 6 3 7 2 8 1 9 14 10 15 11 7 12 8 13
REMARK SMILES IDX 10 14 11 15
REMARK H PARENT
ROOT
ATOM      1  C   UNL     1     130.868 137.412 154.134  1.00  0.00     0.020 A 
ATOM      2  C   UNL     1     130.645 136.138 153.587  1.00  0.00     0.062 A 
ATOM      3  C   UNL     1     131.698 135.382 153.062  1.00  0.00     0.161 A 
ATOM      4  C   UNL     1     133.005 135.901 153.095  1.00  0.00     0.164 A 
ATOM      5  C   UNL     1     133.238 137.163 153.657  1.00  0.00     0.097 A 
ATOM      6  C   UNL     1     132.182 137.921 154.181  1.00  0.00     0.130 A 
ENDROOT
BRANCH   1   7
ATOM      7  C   UNL     1     129.745 138.179 154.708  1.00  0.00     0.007 C 
ATOM      8  C   UNL     1     128.451 137.835 154.589  1.00  0.00    -0.030 C 
ATOM      9  C   UNL     1     127.328 138.636 155.162  1.00  0.00     0.035 C 
ENDBRANCH   1   7
BRANCH   6  10
ATOM     10  O   UNL     1     132.332 139.162 154.753  1.00  0.00    -0.496 OA
ATOM     11  C   UNL     1     133.640 139.568 155.131  1.00  0.00     0.278 C 
ENDBRANCH   6  10
BRANCH   3  12
ATOM     12  O   UNL     1     131.558 134.134 152.506  1.00  0.00    -0.493 OA
ATOM     13  C   UNL     1     130.464 133.338 152.936  1.00  0.00     0.278 C 
ENDBRANCH   3  12
BRANCH   4  14
ATOM     14  O   UNL     1     133.982 135.097 152.559  1.00  0.00    -0.493 OA
ATOM     15  C   UNL     1     134.840 135.656 151.575  1.00  0.00     0.278 C 
ENDBRANCH   4  14
TORSDOF 4
ENDMDL
