MODEL 1
REMARK VINA RESULT:    -5.866      0.000      0.000
REMARK INTER + INTRA:         -10.287
REMARK INTER:                  -8.610
REMARK INTRA:                  -1.677
REMARK UNBOUND:                -1.677
REMARK SMILES CCC(CC)[C@H](NC(C)=O)[C@@H]1[C@H](O)[C@@H](C(=O)O)C[C@H]1NC(=N)N
REMARK SMILES IDX 11 1 12 2 14 3 18 4 19 5 6 6 3 7 2 8 1 9 4 10 5 11 7 12 8 13
REMARK SMILES IDX 10 14 9 16 13 17 20 19 21 20 22 21 23 22 15 27 16 28 17 29
REMARK H PARENT 7 15 13 18 20 23 22 24 23 25 23 26 17 30
ROOT
ATOM      1  C   UNL     1     133.484 136.882 151.907  1.00  0.00     0.064 C 
ATOM      2  C   UNL     1     134.038 135.479 151.588  1.00  0.00     0.136 C 
ATOM      3  C   UNL     1     134.945 135.726 150.384  1.00  0.00     0.130 C 
ATOM      4  C   UNL     1     135.661 137.028 150.747  1.00  0.00     0.043 C 
ATOM      5  C   UNL     1     134.639 137.848 151.555  1.00  0.00     0.090 C 
ENDROOT
BRANCH   1   6
ATOM      6  C   UNL     1     132.837 137.113 153.299  1.00  0.00     0.092 C 
BRANCH   6   7
ATOM      7  C   UNL     1     131.267 137.209 153.273  1.00  0.00     0.011 C 
BRANCH   7   8
ATOM      8  C   UNL     1     130.546 135.974 153.869  1.00  0.00     0.002 C 
ATOM      9  C   UNL     1     130.534 134.742 152.975  1.00  0.00     0.004 C 
ENDBRANCH   7   8
BRANCH   7  10
ATOM     10  C   UNL     1     130.801 138.528 153.952  1.00  0.00     0.002 C 
ATOM     11  C   UNL     1     129.437 138.445 154.628  1.00  0.00     0.004 C 
ENDBRANCH   7  10
ENDBRANCH   6   7
BRANCH   6  12
ATOM     12  N   UNL     1     133.366 138.308 153.966  1.00  0.00    -0.353 N 
ATOM     13  C   UNL     1     133.619 138.376 155.313  1.00  0.00     0.217 C 
ATOM     14  O   UNL     1     133.511 137.408 156.063  1.00  0.00    -0.275 OA
ATOM     15  H   UNL     1     133.562 139.121 153.392  1.00  0.00     0.163 HD
ATOM     16  C   UNL     1     134.102 139.718 155.791  1.00  0.00     0.114 C 
ENDBRANCH   6  12
ENDBRANCH   1   6
BRANCH   2  17
ATOM     17  O   UNL     1     134.839 134.921 152.618  1.00  0.00    -0.392 OA
ATOM     18  H   UNL     1     135.545 135.569 152.830  1.00  0.00     0.210 HD
ENDBRANCH   2  17
BRANCH   5  19
ATOM     19  N   UNL     1     134.123 138.939 150.735  1.00  0.00    -0.354 N 
ATOM     20  C   UNL     1     134.067 140.211 151.190  1.00  0.00     0.185 C 
ATOM     21  N   UNL     1     134.225 140.565 152.411  1.00  0.00    -0.270 NA
ATOM     22  N   UNL     1     133.792 141.081 150.198  1.00  0.00    -0.370 N 
ATOM     23  H   UNL     1     134.397 138.861 149.754  1.00  0.00     0.163 HD
ATOM     24  H   UNL     1     134.155 141.581 152.482  1.00  0.00     0.191 HD
ATOM     25  H   UNL     1     133.475 141.991 150.503  1.00  0.00     0.159 HD
ATOM     26  H   UNL     1     133.176 140.697 149.492  1.00  0.00     0.159 HD
ENDBRANCH   5  19
BRANCH   3  27
ATOM     27  C   UNL     1     134.139 135.865 149.117  1.00  0.00     0.309 C 
ATOM     28  O   UNL     1     133.672 136.896 148.658  1.00  0.00    -0.252 OA
BRANCH  27  29
ATOM     29  O   UNL     1     133.936 134.686 148.501  1.00  0.00    -0.481 OA
ATOM     30  H   UNL     1     134.183 134.841 147.565  1.00  0.00     0.296 HD
ENDBRANCH  27  29
ENDBRANCH   3  27
TORSDOF 9
ENDMDL
