MODEL 1
REMARK VINA RESULT:    -6.283      0.000      0.000
REMARK INTER + INTRA:          -9.486
REMARK INTER:                  -9.037
REMARK INTRA:                  -0.448
REMARK UNBOUND:                -0.448
REMARK SMILES O=C(O)C(F)(F)C(F)(F)C(F)(F)C(F)(F)C(F)(F)C(F)(F)C(F)(F)F
REMARK SMILES IDX 10 1 11 2 12 3 7 4 8 5 9 6 4 7 5 8 6 9 2 10 1 11 3 12 13 14
REMARK SMILES IDX 14 15 15 16 16 17 17 18 18 19 19 20 20 21 21 22 22 23 23 24
REMARK SMILES IDX 24 25 25 26
REMARK H PARENT 3 13
ROOT
ATOM      1  C   UNL     1     129.052 138.449 154.857  1.00  0.00     0.385 C 
ATOM      2  F   UNL     1     129.036 139.012 156.106  1.00  0.00    -0.192 F 
ATOM      3  F   UNL     1     128.570 139.418 154.030  1.00  0.00    -0.192 F 
ENDROOT
BRANCH   1   4
ATOM      4  C   UNL     1     130.502 138.145 154.510  1.00  0.00     0.389 C 
ATOM      5  F   UNL     1     130.910 139.008 153.527  1.00  0.00    -0.192 F 
ATOM      6  F   UNL     1     130.550 136.905 153.924  1.00  0.00    -0.192 F 
BRANCH   4   7
ATOM      7  C   UNL     1     131.504 138.184 155.650  1.00  0.00     0.410 C 
ATOM      8  F   UNL     1     130.943 137.685 156.789  1.00  0.00    -0.186 F 
ATOM      9  F   UNL     1     131.785 139.491 155.952  1.00  0.00    -0.186 F 
BRANCH   7  10
ATOM     10  C   UNL     1     132.773 137.448 155.249  1.00  0.00     0.381 C 
ATOM     11  O   UNL     1     132.920 136.240 155.151  1.00  0.00    -0.245 OA
BRANCH  10  12
ATOM     12  O   UNL     1     133.828 138.262 155.017  1.00  0.00    -0.477 OA
ATOM     13  H   UNL     1     133.887 138.330 154.038  1.00  0.00     0.297 HD
ENDBRANCH  10  12
ENDBRANCH   7  10
ENDBRANCH   4   7
ENDBRANCH   1   4
BRANCH   1  14
ATOM     14  C   UNL     1     128.126 137.243 154.851  1.00  0.00     0.385 C 
ATOM     15  F   UNL     1     128.717 136.202 155.492  1.00  0.00    -0.192 F 
ATOM     16  F   UNL     1     127.916 136.832 153.575  1.00  0.00    -0.192 F 
BRANCH  14  17
ATOM     17  C   UNL     1     126.792 137.569 155.502  1.00  0.00     0.387 C 
ATOM     18  F   UNL     1     126.597 138.917 155.498  1.00  0.00    -0.192 F 
ATOM     19  F   UNL     1     126.806 137.198 156.810  1.00  0.00    -0.192 F 
BRANCH  17  20
ATOM     20  C   UNL     1     125.655 136.880 154.782  1.00  0.00     0.409 C 
ATOM     21  F   UNL     1     125.589 137.296 153.486  1.00  0.00    -0.189 F 
ATOM     22  F   UNL     1     125.870 135.534 154.731  1.00  0.00    -0.189 F 
BRANCH  20  23
ATOM     23  C   UNL     1     124.347 137.173 155.490  1.00  0.00     0.460 C 
ATOM     24  F   UNL     1     123.285 136.880 154.699  1.00  0.00    -0.165 F 
ATOM     25  F   UNL     1     124.200 136.449 156.624  1.00  0.00    -0.165 F 
ATOM     26  F   UNL     1     124.230 138.477 155.830  1.00  0.00    -0.165 F 
ENDBRANCH  20  23
ENDBRANCH  17  20
ENDBRANCH  14  17
ENDBRANCH   1  14
TORSDOF 8
ENDMDL
