MODEL 1
REMARK VINA RESULT:    -5.460      0.000      0.000
REMARK INTER + INTRA:         -13.334
REMARK INTER:                 -10.727
REMARK INTRA:                  -2.608
REMARK UNBOUND:                -2.608
REMARK SMILES COc1cc2cc(c1Cl)N(C)C(=O)C[C@H](OC(=O)C(C)C)[C@]1(C)O[C@H]1[C@H](C)[C@@H]1C[C@@](O)(NC(=O)O1)[C@H](OC)/C=C/C=C(\C)C2
REMARK SMILES IDX 14 1 12 2 13 3 10 4 11 5 7 6 3 7 4 8 8 9 5 10 6 11 9 12 2 13
REMARK SMILES IDX 1 14 44 15 42 16 41 17 43 18 40 19 39 20 15 22 16 23 17 24
REMARK SMILES IDX 18 25 19 26 20 27 21 28 22 29 24 30 25 31 23 32 26 33 27 34
REMARK SMILES IDX 28 35 29 36 35 37 30 38 33 39 32 40 34 41 31 43 36 45 37 47
REMARK SMILES IDX 38 48
REMARK H PARENT 32 42 31 44
REMARK Flexibility Score:  142.900
ROOT
ATOM      1  C   UNL     1     133.128 138.689 148.141  1.00  0.00     0.149 C 
ENDROOT
BRANCH   1   2
ATOM      2  C   UNL     1     133.901 139.395 149.250  1.00  0.00     0.230 C 
ATOM      3  O   UNL     1     133.963 140.626 149.280  1.00  0.00    -0.274 OA
BRANCH   2   4
ATOM      4  N   UNL     1     134.519 138.564 150.204  1.00  0.00    -0.314 N 
ATOM      5  C   UNL     1     135.961 138.337 150.206  1.00  0.00     0.153 C 
BRANCH   4   6
ATOM      6  C   UNL     1     133.726 137.900 151.215  1.00  0.00     0.066 A 
ATOM      7  C   UNL     1     132.602 135.950 152.214  1.00  0.00     0.139 A 
ATOM      8  C   UNL     1     132.161 136.745 153.277  1.00  0.00     0.052 A 
ATOM      9  C   UNL     1     133.395 136.525 151.191  1.00  0.00     0.106 A 
ATOM     10  C   UNL     1     132.495 138.101 153.337  1.00  0.00    -0.038 A 
ATOM     11  C   UNL     1     133.253 138.665 152.297  1.00  0.00     0.032 A 
ATOM     12  Cl  UNL     1     134.072 135.443 149.999  1.00  0.00    -0.078 Cl
BRANCH   7  13
ATOM     13  O   UNL     1     132.322 134.610 152.099  1.00  0.00    -0.495 OA
ATOM     14  C   UNL     1     131.230 134.089 152.846  1.00  0.00     0.278 C 
ENDBRANCH   7  13
BRANCH  10  15
ATOM     15  C   UNL     1     132.112 138.942 154.540  1.00  0.00     0.066 C 
BRANCH  15  16
ATOM     16  C   UNL     1     130.846 138.526 155.290  1.00  0.00    -0.069 C 
ATOM     17  C   UNL     1     129.658 138.332 154.678  1.00  0.00    -0.001 C 
ATOM     18  C   UNL     1     131.086 138.331 156.765  1.00  0.00     0.040 C 
BRANCH  17  19
ATOM     19  C   UNL     1     128.415 137.861 155.250  1.00  0.00    -0.002 C 
ATOM     20  C   UNL     1     127.363 138.688 155.368  1.00  0.00     0.009 CG0
ATOM     21  G   UNL     1     125.984 138.318 155.856  1.00  0.00     0.000 G0
ENDBRANCH  17  19
ENDBRANCH  15  16
ENDBRANCH  10  15
ENDBRANCH   4   6
ENDBRANCH   2   4
ENDBRANCH   1   2
BRANCH   1  22
ATOM     22  C   UNL     1     133.396 139.278 146.746  1.00  0.00     0.220 C 
BRANCH  22  23
ATOM     23  O   UNL     1     132.088 139.417 146.127  1.00  0.00    -0.458 OA
BRANCH  23  24
ATOM     24  C   UNL     1     131.689 140.684 145.832  1.00  0.00     0.308 C 
ATOM     25  O   UNL     1     130.873 141.332 146.470  1.00  0.00    -0.252 OA
BRANCH  24  26
ATOM     26  C   UNL     1     132.414 141.217 144.612  1.00  0.00     0.093 C 
ATOM     27  C   UNL     1     132.964 142.616 144.867  1.00  0.00     0.019 C 
ATOM     28  C   UNL     1     131.503 141.180 143.391  1.00  0.00     0.019 C 
ENDBRANCH  24  26
ENDBRANCH  23  24
ENDBRANCH  22  23
BRANCH  22  29
ATOM     29  C   UNL     1     134.308 138.403 145.882  1.00  0.00     0.130 C 
ATOM     30  O   UNL     1     135.638 138.206 146.394  1.00  0.00    -0.362 OA
ATOM     31  C   UNL     1     135.535 139.094 145.276  1.00  0.00     0.161 C 
ATOM     32  C   UNL     1     133.739 137.150 145.286  1.00  0.00     0.049 C 
BRANCH  31  33
ATOM     33  C   UNL     1     136.210 138.655 143.988  1.00  0.00     0.059 C 
ATOM     34  C   UNL     1     137.698 138.334 144.167  1.00  0.00     0.014 C 
BRANCH  33  35
ATOM     35  C   UNL     1     136.012 139.718 142.863  1.00  0.00     0.189 C 
ATOM     36  C   UNL     1     137.089 139.667 141.783  1.00  0.00     0.107 C 
ATOM     37  O   UNL     1     135.889 141.010 143.507  1.00  0.00    -0.446 OA
ATOM     38  C   UNL     1     137.084 140.951 140.966  1.00  0.00     0.174 C 
ATOM     39  C   UNL     1     136.462 142.145 143.049  1.00  0.00     0.409 C 
ATOM     40  N   UNL     1     137.083 142.082 141.846  1.00  0.00    -0.290 N 
ATOM     41  O   UNL     1     136.399 143.204 143.659  1.00  0.00    -0.224 OA
ATOM     42  H   UNL     1     137.458 142.966 141.529  1.00  0.00     0.170 HD
BRANCH  38  43
ATOM     43  O   UNL     1     135.860 141.053 140.246  1.00  0.00    -0.368 OA
ATOM     44  H   UNL     1     135.318 140.303 140.538  1.00  0.00     0.213 HD
ENDBRANCH  38  43
BRANCH  38  45
ATOM     45  C   UNL     1     138.287 141.005 139.939  1.00  0.00     0.193 CG0
ATOM     46  G   UNL     1     137.921 141.698 138.650  1.00  0.00     0.000 G0
BRANCH  45  47
ATOM     47  O   UNL     1     139.393 141.761 140.464  1.00  0.00    -0.372 OA
ATOM     48  C   UNL     1     140.615 141.035 140.459  1.00  0.00     0.196 C 
ENDBRANCH  45  47
ENDBRANCH  38  45
ENDBRANCH  33  35
ENDBRANCH  31  33
ENDBRANCH  22  29
ENDBRANCH   1  22
TORSDOF 6
ENDMDL
