MODEL 1
REMARK VINA RESULT:    -6.645      0.000      0.000
REMARK INTER + INTRA:         -13.100
REMARK INTER:                 -10.724
REMARK INTRA:                  -2.376
REMARK UNBOUND:                -2.376
REMARK SMILES CCc1cc(C(C)=O)c(O)cc1OCCCCCC(C)(C)c1nn[nH]n1
REMARK SMILES IDX 15 1 14 2 13 3 12 4 3 5 4 6 5 7 11 8 9 9 2 10 1 11 6 12 8 13
REMARK SMILES IDX 7 14 10 15 16 17 17 18 18 19 19 20 20 21 21 22 22 23 23 24
REMARK SMILES IDX 26 25 24 26 25 27
REMARK H PARENT 10 16 25 28
ROOT
ATOM      1  C   UNL     1     134.472 139.309 153.486  1.00  0.00     0.042 C 
ENDROOT
BRANCH   1   2
ATOM      2  C   UNL     1     133.952 139.122 154.913  1.00  0.00     0.229 C 
BRANCH   2   3
ATOM      3  O   UNL     1     133.236 137.891 154.981  1.00  0.00    -0.493 OA
BRANCH   3   4
ATOM      4  C   UNL     1     131.924 137.924 155.371  1.00  0.00     0.126 A 
ATOM      5  C   UNL     1     131.030 137.203 154.560  1.00  0.00    -0.005 A 
ATOM      6  C   UNL     1     129.662 137.195 154.880  1.00  0.00     0.023 A 
ATOM      7  C   UNL     1     129.175 137.875 156.006  1.00  0.00     0.060 A 
ATOM      8  C   UNL     1     131.440 138.616 156.486  1.00  0.00     0.093 A 
ATOM      9  C   UNL     1     130.074 138.595 156.798  1.00  0.00     0.130 A 
BRANCH   5  10
ATOM     10  C   UNL     1     131.499 136.458 153.330  1.00  0.00     0.036 C 
ATOM     11  C   UNL     1     130.673 135.206 153.073  1.00  0.00     0.009 C 
ENDBRANCH   5  10
BRANCH   7  12
ATOM     12  C   UNL     1     127.710 137.797 156.268  1.00  0.00     0.163 C 
ATOM     13  O   UNL     1     127.296 137.050 157.155  1.00  0.00    -0.294 OA
ATOM     14  C   UNL     1     126.759 138.647 155.467  1.00  0.00     0.093 C 
ENDBRANCH   7  12
BRANCH   9  15
ATOM     15  O   UNL     1     129.633 139.315 157.873  1.00  0.00    -0.507 OA
ATOM     16  H   UNL     1     129.024 140.012 157.574  1.00  0.00     0.293 HD
ENDBRANCH   9  15
ENDBRANCH   3   4
ENDBRANCH   2   3
ENDBRANCH   1   2
BRANCH   1  17
ATOM     17  C   UNL     1     133.352 139.678 152.508  1.00  0.00     0.004 C 
BRANCH  17  18
ATOM     18  C   UNL     1     133.499 139.016 151.131  1.00  0.00     0.001 C 
BRANCH  18  19
ATOM     19  C   UNL     1     134.961 138.854 150.691  1.00  0.00     0.014 C 
BRANCH  19  20
ATOM     20  C   UNL     1     135.295 137.557 149.894  1.00  0.00     0.029 C 
ATOM     21  C   UNL     1     136.803 137.496 149.562  1.00  0.00     0.020 C 
ATOM     22  C   UNL     1     134.521 137.527 148.557  1.00  0.00     0.020 C 
BRANCH  20  23
ATOM     23  C   UNL     1     134.889 136.370 150.738  1.00  0.00     0.180 A 
ATOM     24  N   UNL     1     133.931 135.470 150.343  1.00  0.00    -0.113 NA
ATOM     25  N   UNL     1     135.371 136.115 151.966  1.00  0.00    -0.139 NA
ATOM     26  N   UNL     1     133.808 134.593 151.329  1.00  0.00    -0.050 NA
ATOM     27  N   UNL     1     134.674 135.006 152.261  1.00  0.00    -0.177 N 
ATOM     28  H   UNL     1     134.792 134.508 153.138  1.00  0.00     0.216 HD
ENDBRANCH  20  23
ENDBRANCH  19  20
ENDBRANCH  18  19
ENDBRANCH  17  18
ENDBRANCH   1  17
TORSDOF 11
ENDMDL
