MODEL 1
REMARK VINA RESULT:    -5.184      0.000      0.000
REMARK INTER + INTRA:          -5.817
REMARK INTER:                  -5.638
REMARK INTRA:                  -0.178
REMARK UNBOUND:                -0.178
REMARK SMILES Nc1c(Cl)cc(C=C2NCCN2)cc1Cl
REMARK SMILES IDX 2 1 3 2 4 3 5 4 6 5 13 6 14 7 15 8 1 9 7 12 8 13 9 14 12 15
REMARK SMILES IDX 10 16 11 17
REMARK H PARENT 1 10 1 11 9 18 12 19
ROOT
ATOM      1  C   UNL     1     132.730 139.044 155.026  1.00  0.00     0.069 A 
ATOM      2  C   UNL     1     133.992 139.597 154.741  1.00  0.00     0.066 A 
ATOM      3  Cl  UNL     1     135.064 140.057 156.023  1.00  0.00    -0.082 Cl
ATOM      4  C   UNL     1     134.432 139.772 153.424  1.00  0.00     0.031 A 
ATOM      5  C   UNL     1     133.608 139.416 152.351  1.00  0.00    -0.019 A 
ATOM      6  C   UNL     1     132.328 138.921 152.616  1.00  0.00     0.031 A 
ATOM      7  C   UNL     1     131.893 138.750 153.935  1.00  0.00     0.066 A 
ATOM      8  Cl  UNL     1     130.296 138.133 154.192  1.00  0.00    -0.082 Cl
ENDROOT
BRANCH   1   9
ATOM      9  N   UNL     1     132.242 138.994 156.351  1.00  0.00    -0.396 N 
ATOM     10  H   UNL     1     132.056 139.912 156.747  1.00  0.00     0.156 HD
ATOM     11  H   UNL     1     132.786 138.386 156.958  1.00  0.00     0.156 HD
ENDBRANCH   1   9
BRANCH   5  12
ATOM     12  C   UNL     1     134.083 139.642 150.980  1.00  0.00     0.052 C 
ATOM     13  C   UNL     1     134.905 138.841 150.285  1.00  0.00     0.099 C 
ATOM     14  N   UNL     1     135.308 139.100 148.991  1.00  0.00    -0.370 N 
ATOM     15  N   UNL     1     135.490 137.674 150.729  1.00  0.00    -0.370 N 
ATOM     16  C   UNL     1     136.054 137.954 148.464  1.00  0.00     0.135 C 
ATOM     17  C   UNL     1     136.485 137.215 149.754  1.00  0.00     0.135 C 
ATOM     18  H   UNL     1     134.574 139.479 148.402  1.00  0.00     0.162 HD
ATOM     19  H   UNL     1     135.786 137.719 151.698  1.00  0.00     0.162 HD
ENDBRANCH   5  12
TORSDOF 2
ENDMDL
