MODEL 1
REMARK VINA RESULT:    -4.667      0.000      0.000
REMARK INTER + INTRA:         -11.261
REMARK INTER:                  -8.760
REMARK INTRA:                  -2.502
REMARK UNBOUND:                -2.502
REMARK SMILES CCCCCCCCCCCCCCCC[N+](C)(C)C
REMARK SMILES IDX 9 1 8 2 7 3 6 4 5 5 4 6 3 7 2 8 1 9 10 10 11 11 12 12 13 13
REMARK SMILES IDX 14 14 15 15 16 16 17 17 18 18 19 19 20 20
REMARK H PARENT
ROOT
ATOM      1  C   UNL     1     134.326 137.193 151.643  1.00  0.00     0.000 C 
ENDROOT
BRANCH   1   2
ATOM      2  C   UNL     1     133.805 138.478 150.992  1.00  0.00    -0.000 C 
BRANCH   2   3
ATOM      3  C   UNL     1     133.743 139.666 151.955  1.00  0.00    -0.000 C 
BRANCH   3   4
ATOM      4  C   UNL     1     134.641 139.566 153.193  1.00  0.00    -0.000 C 
BRANCH   4   5
ATOM      5  C   UNL     1     133.942 139.784 154.540  1.00  0.00    -0.000 C 
BRANCH   5   6
ATOM      6  C   UNL     1     134.903 140.197 155.659  1.00  0.00    -0.000 C 
BRANCH   6   7
ATOM      7  C   UNL     1     134.667 139.437 156.968  1.00  0.00    -0.000 C 
BRANCH   7   8
ATOM      8  C   UNL     1     133.635 138.316 156.840  1.00  0.00    -0.003 C 
ATOM      9  C   UNL     1     133.773 137.305 157.969  1.00  0.00     0.004 C 
ENDBRANCH   7   8
ENDBRANCH   6   7
ENDBRANCH   5   6
ENDBRANCH   4   5
ENDBRANCH   3   4
ENDBRANCH   2   3
ENDBRANCH   1   2
BRANCH   1  10
ATOM     10  C   UNL     1     133.301 136.062 151.526  1.00  0.00     0.000 C 
BRANCH  10  11
ATOM     11  C   UNL     1     133.077 135.306 152.839  1.00  0.00     0.000 C 
BRANCH  11  12
ATOM     12  C   UNL     1     132.669 136.214 154.003  1.00  0.00     0.000 C 
BRANCH  12  13
ATOM     13  C   UNL     1     131.155 136.444 154.019  1.00  0.00     0.000 C 
BRANCH  13  14
ATOM     14  C   UNL     1     130.763 137.927 154.075  1.00  0.00     0.006 C 
BRANCH  14  15
ATOM     15  C   UNL     1     129.368 138.162 154.652  1.00  0.00     0.061 C 
BRANCH  15  16
ATOM     16  C   UNL     1     128.298 137.133 154.267  1.00  0.00     0.263 C 
BRANCH  16  17
ATOM     17  N   UNL     1     127.027 137.083 155.134  1.00  0.00    -0.331 N 
ATOM     18  C   UNL     1     126.013 138.147 154.725  1.00  0.00     0.334 C 
ATOM     19  C   UNL     1     126.370 135.709 155.126  1.00  0.00     0.334 C 
ATOM     20  C   UNL     1     127.449 137.395 156.580  1.00  0.00     0.334 C 
ENDBRANCH  16  17
ENDBRANCH  15  16
ENDBRANCH  14  15
ENDBRANCH  13  14
ENDBRANCH  12  13
ENDBRANCH  11  12
ENDBRANCH  10  11
ENDBRANCH   1  10
TORSDOF 15
ENDMDL
