MODEL 1
REMARK VINA RESULT:    -8.287      0.000      0.000
REMARK INTER + INTRA:          -8.287
REMARK INTER:                  -8.287
REMARK INTRA:                   0.000
REMARK UNBOUND:                 0.000
REMARK SMILES NC1=NC[C@@H]2c3ccccc3Cc3ccccc3N12
REMARK SMILES IDX 1 1 2 2 3 3 4 4 5 5 6 6 7 7 8 8 9 9 10 10 11 11 12 12 13 13
REMARK SMILES IDX 14 14 15 15 16 16 17 17 18 18 19 19
REMARK H PARENT 1 20 1 21
ROOT
ATOM      1  N   UNL     1     134.646 135.326 151.968  1.00  0.00    -0.369 N 
ATOM      2  C   UNL     1     133.369 135.271 152.409  1.00  0.00     0.196 C 
ATOM      3  N   UNL     1     132.629 134.225 152.137  1.00  0.00    -0.250 NA
ATOM      4  C   UNL     1     131.341 134.561 152.809  1.00  0.00     0.176 C 
ATOM      5  C   UNL     1     131.683 135.625 153.879  1.00  0.00     0.143 C 
ATOM      6  C   UNL     1     130.570 136.551 154.327  1.00  0.00    -0.020 A 
ATOM      7  C   UNL     1     129.254 136.470 153.846  1.00  0.00     0.006 A 
ATOM      8  C   UNL     1     128.256 137.316 154.338  1.00  0.00     0.000 A 
ATOM      9  C   UNL     1     128.551 138.250 155.324  1.00  0.00     0.000 A 
ATOM     10  C   UNL     1     129.847 138.341 155.824  1.00  0.00     0.004 A 
ATOM     11  C   UNL     1     130.855 137.494 155.339  1.00  0.00    -0.038 A 
ATOM     12  C   UNL     1     132.270 137.621 155.853  1.00  0.00     0.073 C 
ATOM     13  C   UNL     1     133.189 138.165 154.784  1.00  0.00    -0.020 A 
ATOM     14  C   UNL     1     133.809 139.409 155.038  1.00  0.00     0.006 A 
ATOM     15  C   UNL     1     134.623 140.017 154.090  1.00  0.00     0.000 A 
ATOM     16  C   UNL     1     134.813 139.398 152.866  1.00  0.00     0.002 A 
ATOM     17  C   UNL     1     134.207 138.164 152.610  1.00  0.00     0.027 A 
ATOM     18  C   UNL     1     133.406 137.491 153.559  1.00  0.00     0.048 A 
ATOM     19  N   UNL     1     132.857 136.240 153.241  1.00  0.00    -0.303 N 
ATOM     20  H   UNL     1     135.296 135.673 152.662  1.00  0.00     0.159 HD
ATOM     21  H   UNL     1     134.934 134.433 151.586  1.00  0.00     0.159 HD
ENDROOT
TORSDOF 0
ENDMDL
