MODEL 1
REMARK VINA RESULT:    -4.421      0.000      0.000
REMARK INTER + INTRA:          -8.059
REMARK INTER:                  -7.006
REMARK INTRA:                  -1.054
REMARK UNBOUND:                -1.054
REMARK SMILES COP(=S)(OC)Oc1ccc(Sc2ccc(OP(=S)(OC)OC)cc2)cc1
REMARK SMILES IDX 12 1 11 2 8 3 9 4 27 5 10 6 26 7 7 8 3 9 4 10 2 11 1 12 5 13
REMARK SMILES IDX 6 14 13 15 14 16 25 17 15 18 24 19 16 20 17 21 18 22 19 23
REMARK SMILES IDX 20 24 21 25 22 26 23 27
REMARK H PARENT
ROOT
ATOM      1  S   UNL     1     135.139 136.089 152.090  1.00  0.00    -0.090 SA
ENDROOT
BRANCH   1   2
ATOM      2  C   UNL     1     135.036 136.511 150.360  1.00  0.00     0.012 A 
ATOM      3  C   UNL     1     134.837 137.142 147.633  1.00  0.00     0.129 A 
ATOM      4  C   UNL     1     133.883 136.321 148.228  1.00  0.00     0.048 A 
ATOM      5  C   UNL     1     135.891 137.644 148.397  1.00  0.00     0.048 A 
ATOM      6  C   UNL     1     133.987 136.003 149.587  1.00  0.00     0.019 A 
ATOM      7  C   UNL     1     135.994 137.328 149.754  1.00  0.00     0.019 A 
BRANCH   3   8
ATOM      8  O   UNL     1     134.823 137.529 146.323  1.00  0.00    -0.424 OA
BRANCH   8   9
ATOM      9  P   UNL     1     134.052 138.807 145.706  1.00  0.00     0.380 P 
ATOM     10  S   UNL     1     132.657 138.459 144.401  1.00  0.00     0.006 S 
BRANCH   9  11
ATOM     11  O   UNL     1     135.303 139.686 145.166  1.00  0.00    -0.303 OA
ATOM     12  C   UNL     1     136.301 139.039 144.398  1.00  0.00     0.207 C 
ENDBRANCH   9  11
BRANCH   9  13
ATOM     13  O   UNL     1     133.596 139.648 147.015  1.00  0.00    -0.303 OA
ATOM     14  C   UNL     1     132.880 140.857 146.848  1.00  0.00     0.207 C 
ENDBRANCH   9  13
ENDBRANCH   8   9
ENDBRANCH   3   8
ENDBRANCH   1   2
BRANCH   1  15
ATOM     15  C   UNL     1     133.574 136.691 152.695  1.00  0.00     0.012 A 
ATOM     16  C   UNL     1     132.603 135.815 153.193  1.00  0.00     0.019 A 
ATOM     17  C   UNL     1     133.315 138.064 152.693  1.00  0.00     0.019 A 
ATOM     18  C   UNL     1     131.379 136.301 153.663  1.00  0.00     0.048 A 
ATOM     19  C   UNL     1     132.093 138.549 153.163  1.00  0.00     0.048 A 
ATOM     20  C   UNL     1     131.120 137.669 153.639  1.00  0.00     0.129 A 
BRANCH  20  21
ATOM     21  O   UNL     1     129.964 138.248 154.080  1.00  0.00    -0.424 OA
BRANCH  21  22
ATOM     22  P   UNL     1     128.932 137.625 155.156  1.00  0.00     0.380 P 
ATOM     23  S   UNL     1     128.030 135.976 154.670  1.00  0.00     0.006 S 
BRANCH  22  24
ATOM     24  O   UNL     1     129.793 137.577 156.530  1.00  0.00    -0.303 OA
ATOM     25  C   UNL     1     129.693 138.648 157.447  1.00  0.00     0.207 C 
ENDBRANCH  22  24
BRANCH  22  26
ATOM     26  O   UNL     1     127.960 138.898 155.417  1.00  0.00    -0.303 OA
ATOM     27  C   UNL     1     126.588 138.775 155.096  1.00  0.00     0.207 C 
ENDBRANCH  22  26
ENDBRANCH  21  22
ENDBRANCH  20  21
ENDBRANCH   1  15
TORSDOF 10
ENDMDL
