MODEL 1
REMARK VINA RESULT:    -5.528      0.000      0.000
REMARK INTER + INTRA:          -5.711
REMARK INTER:                  -5.851
REMARK INTRA:                   0.140
REMARK UNBOUND:                 0.140
REMARK SMILES N#Cc1cc2[nH]c(=O)c(=O)[nH]c2cc1[N+](=O)[O-]
REMARK SMILES IDX 1 1 2 2 3 3 4 4 5 5 6 6 7 7 8 8 9 9 10 10 11 11 12 12 13 13
REMARK SMILES IDX 14 14 15 17 16 18 17 19
REMARK H PARENT 6 15 11 16
ROOT
ATOM      1  N   UNL     1     125.757 146.950 148.159  1.00  0.00    -0.192 NA
ATOM      2  C   UNL     1     125.978 146.794 149.286  1.00  0.00     0.106 C 
ATOM      3  C   UNL     1     126.303 146.602 150.669  1.00  0.00     0.132 A 
ATOM      4  C   UNL     1     127.441 147.241 151.187  1.00  0.00     0.055 A 
ATOM      5  C   UNL     1     127.808 147.041 152.521  1.00  0.00     0.067 A 
ATOM      6  N   UNL     1     128.941 147.679 153.029  1.00  0.00    -0.316 N 
ATOM      7  C   UNL     1     129.376 147.535 154.330  1.00  0.00     0.314 C 
ATOM      8  O   UNL     1     130.374 148.111 154.739  1.00  0.00    -0.263 OA
ATOM      9  C   UNL     1     128.539 146.606 155.246  1.00  0.00     0.314 C 
ATOM     10  O   UNL     1     128.844 146.413 156.413  1.00  0.00    -0.263 OA
ATOM     11  N   UNL     1     127.434 146.007 154.678  1.00  0.00    -0.316 N 
ATOM     12  C   UNL     1     127.051 146.202 153.350  1.00  0.00     0.072 A 
ATOM     13  C   UNL     1     125.920 145.561 152.855  1.00  0.00     0.115 A 
ATOM     14  C   UNL     1     125.556 145.775 151.517  1.00  0.00     0.289 A 
ATOM     15  H   UNL     1     129.505 148.291 152.452  1.00  0.00     0.170 HD
ATOM     16  H   UNL     1     126.907 145.404 155.298  1.00  0.00     0.170 HD
ENDROOT
BRANCH  14  17
ATOM     17  N   UNL     1     124.362 145.110 151.032  1.00  0.00     0.064 N 
ATOM     18  O   UNL     1     123.481 145.826 150.544  1.00  0.00    -0.258 OA
ATOM     19  O   UNL     1     124.309 143.884 151.179  1.00  0.00    -0.258 OA
ENDBRANCH  14  17
TORSDOF 1
ENDMDL
