MODEL 1
REMARK VINA RESULT:    -5.628      0.000      0.000
REMARK INTER + INTRA:         -13.957
REMARK INTER:                 -11.057
REMARK INTRA:                  -2.900
REMARK UNBOUND:                -2.900
REMARK SMILES COc1cc2cc(c1Cl)N(C)C(=O)C[C@H](OC(=O)C(C)C)[C@]1(C)O[C@H]1[C@H](C)[C@@H]1C[C@@](O)(NC(=O)O1)[C@H](OC)/C=C/C=C(\C)C2
REMARK SMILES IDX 14 1 12 2 13 3 10 4 11 5 7 6 3 7 4 8 8 9 5 10 6 11 9 12 2 13
REMARK SMILES IDX 1 14 44 15 42 16 41 17 43 18 40 19 39 20 15 22 16 23 17 24
REMARK SMILES IDX 18 25 19 26 20 27 21 28 22 29 24 30 25 31 23 32 26 33 27 34
REMARK SMILES IDX 28 35 29 36 35 37 30 38 33 39 32 40 34 41 31 43 36 45 37 47
REMARK SMILES IDX 38 48
REMARK H PARENT 32 42 31 44
REMARK Flexibility Score:  142.900
ROOT
ATOM      1  C   UNL     1     133.080 139.430 148.493  1.00  0.00     0.149 C 
ENDROOT
BRANCH   1   2
ATOM      2  C   UNL     1     134.082 139.847 149.564  1.00  0.00     0.230 C 
ATOM      3  O   UNL     1     134.370 141.036 149.719  1.00  0.00    -0.274 OA
BRANCH   2   4
ATOM      4  N   UNL     1     134.637 138.808 150.336  1.00  0.00    -0.314 N 
ATOM      5  C   UNL     1     136.024 138.384 150.168  1.00  0.00     0.153 C 
BRANCH   4   6
ATOM      6  C   UNL     1     133.833 138.123 151.322  1.00  0.00     0.066 A 
ATOM      7  C   UNL     1     132.630 136.172 152.224  1.00  0.00     0.139 A 
ATOM      8  C   UNL     1     132.253 136.919 153.345  1.00  0.00     0.052 A 
ATOM      9  C   UNL     1     133.431 136.770 151.220  1.00  0.00     0.106 A 
ATOM     10  C   UNL     1     132.657 138.250 153.481  1.00  0.00    -0.038 A 
ATOM     11  C   UNL     1     133.422 138.840 152.461  1.00  0.00     0.032 A 
ATOM     12  Cl  UNL     1     134.026 135.734 149.948  1.00  0.00    -0.078 Cl
BRANCH   7  13
ATOM     13  O   UNL     1     132.279 134.857 152.033  1.00  0.00    -0.495 OA
ATOM     14  C   UNL     1     131.246 134.317 152.846  1.00  0.00     0.278 C 
ENDBRANCH   7  13
BRANCH  10  15
ATOM     15  C   UNL     1     132.343 139.031 154.743  1.00  0.00     0.066 C 
BRANCH  15  16
ATOM     16  C   UNL     1     133.315 138.864 155.911  1.00  0.00    -0.069 C 
ATOM     17  C   UNL     1     133.159 137.927 156.870  1.00  0.00    -0.001 C 
ATOM     18  C   UNL     1     134.468 139.834 155.848  1.00  0.00     0.040 C 
BRANCH  17  19
ATOM     19  C   UNL     1     134.040 137.608 157.973  1.00  0.00    -0.002 C 
ATOM     20  C   UNL     1     133.538 137.205 159.151  1.00  0.00     0.009 CG0
ATOM     21  G   UNL     1     134.328 136.753 160.355  1.00  0.00     0.000 G0
ENDBRANCH  17  19
ENDBRANCH  15  16
ENDBRANCH  10  15
ENDBRANCH   4   6
ENDBRANCH   2   4
ENDBRANCH   1   2
BRANCH   1  22
ATOM     22  C   UNL     1     133.441 139.948 147.092  1.00  0.00     0.220 C 
BRANCH  22  23
ATOM     23  O   UNL     1     132.227 140.565 146.583  1.00  0.00    -0.458 OA
BRANCH  23  24
ATOM     24  C   UNL     1     132.390 141.631 145.753  1.00  0.00     0.308 C 
ATOM     25  O   UNL     1     133.334 142.407 145.780  1.00  0.00    -0.252 OA
BRANCH  24  26
ATOM     26  C   UNL     1     131.255 141.727 144.753  1.00  0.00     0.093 C 
ATOM     27  C   UNL     1     129.903 141.551 145.437  1.00  0.00     0.019 C 
ATOM     28  C   UNL     1     131.454 140.723 143.624  1.00  0.00     0.019 C 
ENDBRANCH  24  26
ENDBRANCH  23  24
ENDBRANCH  22  23
BRANCH  22  29
ATOM     29  C   UNL     1     133.922 138.849 146.141  1.00  0.00     0.130 C 
ATOM     30  O   UNL     1     135.180 138.243 146.487  1.00  0.00    -0.362 OA
ATOM     31  C   UNL     1     135.215 139.137 145.370  1.00  0.00     0.161 C 
ATOM     32  C   UNL     1     132.924 137.842 145.652  1.00  0.00     0.049 C 
BRANCH  31  33
ATOM     33  C   UNL     1     135.553 138.531 144.019  1.00  0.00     0.059 C 
ATOM     34  C   UNL     1     136.905 137.809 144.004  1.00  0.00     0.014 C 
BRANCH  33  35
ATOM     35  C   UNL     1     135.498 139.610 142.893  1.00  0.00     0.189 C 
ATOM     36  C   UNL     1     136.586 139.441 141.835  1.00  0.00     0.107 C 
ATOM     37  O   UNL     1     135.506 140.908 143.539  1.00  0.00    -0.446 OA
ATOM     38  C   UNL     1     136.741 140.719 141.023  1.00  0.00     0.174 C 
ATOM     39  C   UNL     1     136.212 141.973 143.096  1.00  0.00     0.409 C 
ATOM     40  N   UNL     1     136.847 141.842 141.906  1.00  0.00    -0.290 N 
ATOM     41  O   UNL     1     136.254 143.031 143.708  1.00  0.00    -0.224 OA
ATOM     42  H   UNL     1     137.324 142.679 141.599  1.00  0.00     0.170 HD
BRANCH  38  43
ATOM     43  O   UNL     1     135.551 140.957 140.278  1.00  0.00    -0.368 OA
ATOM     44  H   UNL     1     135.392 140.147 139.766  1.00  0.00     0.213 HD
ENDBRANCH  38  43
BRANCH  38  45
ATOM     45  C   UNL     1     137.963 140.639 140.021  1.00  0.00     0.193 CG0
ATOM     46  G   UNL     1     137.540 140.740 138.577  1.00  0.00     0.000 G0
BRANCH  45  47
ATOM     47  O   UNL     1     138.875 141.734 140.217  1.00  0.00    -0.372 OA
ATOM     48  C   UNL     1     140.171 141.480 139.691  1.00  0.00     0.196 C 
ENDBRANCH  45  47
ENDBRANCH  38  45
ENDBRANCH  33  35
ENDBRANCH  31  33
ENDBRANCH  22  29
ENDBRANCH   1  22
TORSDOF 6
ENDMDL
