MODEL 1
REMARK VINA RESULT:    -7.305      0.000      0.000
REMARK INTER + INTRA:         -11.677
REMARK INTER:                 -10.294
REMARK INTRA:                  -1.383
REMARK UNBOUND:                -1.383
REMARK SMILES O=C(c1c(F)ccc(NS(=O)(=O)N2CC[C@@H](F)C2)c1F)c1c[nH]c2ncc(-c3cnc(C4CC4)nc3)cc12
REMARK SMILES IDX 3 1 4 2 5 3 6 4 7 5 8 6 19 7 20 8 2 9 1 10 21 11 22 12 38 13
REMARK SMILES IDX 23 14 37 15 24 16 27 17 25 18 26 19 28 21 29 22 36 23 30 24
REMARK SMILES IDX 35 25 31 26 32 27 33 28 34 29 9 30 10 32 11 33 12 34 13 35
REMARK SMILES IDX 14 36 18 37 15 38 16 39 17 40
REMARK H PARENT 23 20 9 31
ROOT
ATOM      1  C   UNL     1     132.443 138.283 154.815  1.00  0.00     0.096 A 
ATOM      2  C   UNL     1     132.797 138.355 156.158  1.00  0.00     0.137 A 
ATOM      3  F   UNL     1     134.084 138.426 156.525  1.00  0.00    -0.206 F 
ATOM      4  C   UNL     1     131.816 138.347 157.149  1.00  0.00     0.042 A 
ATOM      5  C   UNL     1     130.468 138.274 156.791  1.00  0.00     0.033 A 
ATOM      6  C   UNL     1     130.107 138.212 155.443  1.00  0.00     0.086 A 
ATOM      7  C   UNL     1     131.102 138.224 154.458  1.00  0.00     0.161 A 
ATOM      8  F   UNL     1     130.738 138.134 153.169  1.00  0.00    -0.204 F 
ENDROOT
BRANCH   1   9
ATOM      9  C   UNL     1     133.468 138.302 153.772  1.00  0.00     0.201 C 
ATOM     10  O   UNL     1     134.231 139.262 153.734  1.00  0.00    -0.288 OA
BRANCH   9  11
ATOM     11  C   UNL     1     133.533 137.194 152.822  1.00  0.00     0.050 A 
ATOM     12  C   UNL     1     133.731 135.850 153.109  1.00  0.00     0.097 A 
ATOM     13  C   UNL     1     133.389 137.284 151.397  1.00  0.00     0.030 A 
ATOM     14  N   UNL     1     133.724 135.148 151.929  1.00  0.00    -0.345 N 
ATOM     15  C   UNL     1     133.161 138.319 150.468  1.00  0.00     0.023 A 
ATOM     16  C   UNL     1     133.515 136.000 150.885  1.00  0.00     0.138 A 
ATOM     17  C   UNL     1     133.076 138.006 149.101  1.00  0.00     0.004 A 
ATOM     18  N   UNL     1     133.450 135.618 149.599  1.00  0.00    -0.238 NA
ATOM     19  C   UNL     1     133.234 136.658 148.753  1.00  0.00     0.122 A 
ATOM     20  H   UNL     1     133.849 134.151 151.817  1.00  0.00     0.167 HD
BRANCH  17  21
ATOM     21  C   UNL     1     132.842 139.041 148.090  1.00  0.00     0.020 A 
ATOM     22  C   UNL     1     131.979 138.881 147.021  1.00  0.00     0.123 A 
ATOM     23  C   UNL     1     133.461 140.276 148.106  1.00  0.00     0.123 A 
ATOM     24  N   UNL     1     131.753 139.812 146.068  1.00  0.00    -0.240 NA
ATOM     25  N   UNL     1     133.271 141.245 147.182  1.00  0.00    -0.240 NA
ATOM     26  C   UNL     1     132.414 140.981 146.175  1.00  0.00     0.131 A 
BRANCH  26  27
ATOM     27  C   UNL     1     132.176 142.045 145.133  1.00  0.00     0.058 C 
ATOM     28  C   UNL     1     132.872 141.965 143.793  1.00  0.00     0.012 C 
ATOM     29  C   UNL     1     131.396 141.720 143.878  1.00  0.00     0.012 C 
ENDBRANCH  26  27
ENDBRANCH  17  21
ENDBRANCH   9  11
ENDBRANCH   1   9
BRANCH   6  30
ATOM     30  N   UNL     1     128.725 138.173 155.044  1.00  0.00    -0.268 N 
ATOM     31  H   UNL     1     128.123 138.593 155.761  1.00  0.00     0.181 HD
BRANCH  30  32
ATOM     32  S   UNL     1     128.093 136.632 154.758  1.00  0.00     0.301 S 
ATOM     33  O   UNL     1     128.148 135.909 156.007  1.00  0.00    -0.189 OA
ATOM     34  O   UNL     1     128.678 136.100 153.552  1.00  0.00    -0.189 OA
BRANCH  32  35
ATOM     35  N   UNL     1     126.482 137.000 154.451  1.00  0.00    -0.182 NA
ATOM     36  C   UNL     1     126.044 138.393 154.749  1.00  0.00     0.107 C 
ATOM     37  C   UNL     1     125.498 136.073 155.096  1.00  0.00     0.141 C 
ATOM     38  C   UNL     1     125.027 138.267 155.873  1.00  0.00     0.056 C 
ATOM     39  C   UNL     1     124.345 136.961 155.542  1.00  0.00     0.183 C 
ATOM     40  F   UNL     1     123.495 137.164 154.498  1.00  0.00    -0.246 F 
ENDBRANCH  32  35
ENDBRANCH  30  32
ENDBRANCH   6  30
TORSDOF 7
ENDMDL
