MODEL 1
REMARK VINA RESULT:    -5.853      0.000      0.000
REMARK INTER + INTRA:          -8.119
REMARK INTER:                  -7.221
REMARK INTRA:                  -0.898
REMARK UNBOUND:                -0.898
REMARK SMILES N#C[C@@H]1C[C@@H]2C[C@@H]2N1C(=O)[C@@H](N)[C@@]12C[C@@H]3C[C@@H](C[C@@](O)(C3)C1)C2
REMARK SMILES IDX 13 1 14 2 15 3 16 4 17 5 18 6 19 7 21 8 22 9 23 10 11 11
REMARK SMILES IDX 9 12 10 13 8 14 1 15 2 16 3 17 4 18 5 19 7 20 6 21 12 22
REMARK SMILES IDX 20 25
REMARK H PARENT 12 23 12 24 20 26
ROOT
ATOM      1  C   UNL     1     133.488 137.942 152.684  1.00  0.00    -0.002 C 
ATOM      2  C   UNL     1     134.904 138.532 152.384  1.00  0.00     0.013 C 
ATOM      3  C   UNL     1     135.387 138.154 150.973  1.00  0.00    -0.007 C 
ATOM      4  C   UNL     1     134.397 138.698 149.933  1.00  0.00     0.007 C 
ATOM      5  C   UNL     1     133.002 138.104 150.177  1.00  0.00    -0.007 C 
ATOM      6  C   UNL     1     133.072 136.573 150.072  1.00  0.00     0.039 C 
ATOM      7  C   UNL     1     134.064 136.021 151.109  1.00  0.00     0.066 C 
ATOM      8  C   UNL     1     135.455 136.625 150.860  1.00  0.00     0.039 C 
ATOM      9  C   UNL     1     133.588 136.400 152.525  1.00  0.00     0.044 C 
ATOM     10  C   UNL     1     132.527 138.492 151.588  1.00  0.00     0.013 C 
ENDROOT
BRANCH   1  11
ATOM     11  C   UNL     1     133.011 138.404 154.103  1.00  0.00     0.147 C 
BRANCH  11  12
ATOM     12  C   UNL     1     132.204 137.337 154.900  1.00  0.00     0.241 C 
ATOM     13  O   UNL     1     132.745 136.513 155.639  1.00  0.00    -0.273 OA
BRANCH  12  14
ATOM     14  N   UNL     1     130.828 137.381 154.784  1.00  0.00    -0.322 N 
ATOM     15  N   UNL     1     129.856 138.173 158.020  1.00  0.00    -0.196 NA
ATOM     16  C   UNL     1     129.960 138.308 156.870  1.00  0.00     0.087 C 
ATOM     17  C   UNL     1     130.046 138.468 155.402  1.00  0.00     0.189 C 
ATOM     18  C   UNL     1     128.638 138.375 154.764  1.00  0.00     0.046 C 
ATOM     19  C   UNL     1     128.588 137.056 154.037  1.00  0.00     0.017 C 
ATOM     20  C   UNL     1     129.981 136.493 154.041  1.00  0.00     0.090 C 
ATOM     21  C   UNL     1     128.865 135.735 154.703  1.00  0.00     0.031 C 
ENDBRANCH  12  14
ENDBRANCH  11  12
BRANCH  11  22
ATOM     22  N   UNL     1     134.114 138.867 154.977  1.00  0.00    -0.319 NA
ATOM     23  H   UNL     1     134.919 138.253 154.882  1.00  0.00     0.119 HD
ATOM     24  H   UNL     1     133.812 138.779 155.951  1.00  0.00     0.119 HD
ENDBRANCH  11  22
ENDBRANCH   1  11
BRANCH   7  25
ATOM     25  O   UNL     1     134.138 134.606 151.013  1.00  0.00    -0.390 OA
ATOM     26  H   UNL     1     134.417 134.260 151.877  1.00  0.00     0.211 HD
ENDBRANCH   7  25
TORSDOF 5
ENDMDL
