MODEL 1
REMARK VINA RESULT:    -7.766      0.000      0.000
REMARK INTER + INTRA:          -8.499
REMARK INTER:                  -8.447
REMARK INTRA:                  -0.053
REMARK UNBOUND:                -0.053
REMARK SMILES Cc1cc(C)c(N)c(C#Cc2cccc(F)c2)n1
REMARK SMILES IDX 1 1 2 2 3 3 4 4 5 5 6 6 8 7 9 8 18 9 7 10 10 13 11 14 12 15
REMARK SMILES IDX 17 16 13 17 15 18 14 19 16 20
REMARK H PARENT 7 11 7 12
ROOT
ATOM      1  C   UNL     1     133.521 139.098 150.974  1.00  0.00     0.067 C 
ATOM      2  C   UNL     1     133.155 139.119 152.427  1.00  0.00     0.039 A 
ATOM      3  C   UNL     1     134.096 139.500 153.379  1.00  0.00     0.029 A 
ATOM      4  C   UNL     1     133.746 139.515 154.738  1.00  0.00    -0.023 A 
ATOM      5  C   UNL     1     134.787 139.891 155.756  1.00  0.00     0.047 C 
ATOM      6  C   UNL     1     132.432 139.185 155.109  1.00  0.00     0.069 A 
ATOM      7  C   UNL     1     131.581 138.758 154.072  1.00  0.00     0.136 A 
ATOM      8  C   UNL     1     130.245 138.308 154.326  1.00  0.00    -0.039 C 
ATOM      9  N   UNL     1     131.903 138.741 152.756  1.00  0.00    -0.242 NA
ENDROOT
BRANCH   6  10
ATOM     10  N   UNL     1     132.078 139.080 156.471  1.00  0.00    -0.396 N 
ATOM     11  H   UNL     1     131.094 138.890 156.629  1.00  0.00     0.156 HD
ATOM     12  H   UNL     1     132.676 138.447 156.995  1.00  0.00     0.156 HD
ENDBRANCH   6  10
BRANCH   8  13
ATOM     13  C   UNL     1     129.124 137.932 154.540  1.00  0.00    -0.060 C 
ATOM     14  C   UNL     1     127.792 137.482 154.795  1.00  0.00     0.028 A 
ATOM     15  C   UNL     1     127.517 136.111 154.855  1.00  0.00     0.017 A 
ATOM     16  C   UNL     1     126.764 138.407 154.980  1.00  0.00     0.056 A 
ATOM     17  C   UNL     1     126.215 135.665 155.099  1.00  0.00     0.004 A 
ATOM     18  C   UNL     1     125.473 137.952 155.223  1.00  0.00     0.124 A 
ATOM     19  C   UNL     1     125.189 136.591 155.284  1.00  0.00     0.039 A 
ATOM     20  F   UNL     1     124.485 138.839 155.400  1.00  0.00    -0.207 F 
ENDBRANCH   8  13
TORSDOF 2
ENDMDL
