MODEL 1
REMARK VINA RESULT:    -4.795      0.000      0.000
REMARK INTER + INTRA:          -5.686
REMARK INTER:                  -5.356
REMARK INTRA:                  -0.330
REMARK UNBOUND:                -0.330
REMARK SMILES Cc1nc(Cn2cnc3c2c(=O)n(C)c(=O)n3C)no1
REMARK SMILES IDX 5 1 4 2 2 3 3 4 20 5 19 6 1 7 6 8 7 9 10 10 8 11 9 12 11 13
REMARK SMILES IDX 17 14 12 15 13 16 15 17 16 18 18 19 14 20
REMARK H PARENT
ROOT
ATOM      1  C   UNL     1     131.617 139.008 155.709  1.00  0.00     0.205 C 
ENDROOT
BRANCH   1   2
ATOM      2  C   UNL     1     131.823 138.353 157.023  1.00  0.00     0.191 A 
ATOM      3  C   UNL     1     132.797 137.470 158.649  1.00  0.00     0.223 A 
ATOM      4  N   UNL     1     133.074 138.020 157.488  1.00  0.00    -0.194 NA
ATOM      5  O   UNL     1     131.463 137.449 158.934  1.00  0.00    -0.340 OA
ATOM      6  N   UNL     1     130.816 138.041 157.850  1.00  0.00    -0.061 NA
ATOM      7  C   UNL     1     133.698 136.888 159.658  1.00  0.00     0.114 C 
ENDBRANCH   1   2
BRANCH   1   8
ATOM      8  N   UNL     1     132.611 138.551 154.756  1.00  0.00    -0.317 N 
ATOM      9  C   UNL     1     133.760 139.234 154.431  1.00  0.00     0.203 A 
ATOM     10  C   UNL     1     132.601 137.411 154.000  1.00  0.00     0.152 A 
ATOM     11  N   UNL     1     134.472 138.590 153.529  1.00  0.00    -0.218 NA
ATOM     12  C   UNL     1     133.754 137.461 153.274  1.00  0.00     0.167 A 
ATOM     13  C   UNL     1     131.671 136.340 153.895  1.00  0.00     0.282 C 
ATOM     14  N   UNL     1     134.102 136.469 152.389  1.00  0.00    -0.279 N 
ATOM     15  O   UNL     1     130.599 136.329 154.491  1.00  0.00    -0.267 OA
ATOM     16  N   UNL     1     132.097 135.330 153.028  1.00  0.00    -0.261 N 
ATOM     17  C   UNL     1     133.261 135.368 152.233  1.00  0.00     0.332 C 
ATOM     18  O   UNL     1     133.513 134.464 151.431  1.00  0.00    -0.247 OA
ATOM     19  C   UNL     1     135.328 136.577 151.620  1.00  0.00     0.157 C 
ATOM     20  C   UNL     1     131.230 134.181 152.849  1.00  0.00     0.159 C 
ENDBRANCH   1   8
TORSDOF 2
ENDMDL
