MODEL 1
REMARK VINA RESULT:    -6.101      0.000      0.000
REMARK INTER + INTRA:         -10.382
REMARK INTER:                  -9.310
REMARK INTRA:                  -1.072
REMARK UNBOUND:                -1.072
REMARK SMILES CC(/C=C/C=C(\C)C(=O)O)=C\C=C\C=C(C)\C=C\C=C(/C)C(=O)O
REMARK SMILES IDX 12 1 13 2 11 3 2 4 1 5 3 6 4 7 5 8 6 9 7 10 8 11 9 12 10 13
REMARK SMILES IDX 14 15 15 16 16 17 17 18 18 19 19 20 20 21 21 22 22 23 23 24
REMARK SMILES IDX 24 25
REMARK H PARENT 10 14 24 26
ROOT
ATOM      1  C   UNL     1     133.407 138.607 151.268  1.00  0.00     0.000 C 
ATOM      2  C   UNL     1     132.634 139.126 152.237  1.00  0.00     0.000 C 
ENDROOT
BRANCH   1   3
ATOM      3  C   UNL     1     133.474 139.172 149.934  1.00  0.00     0.003 C 
ATOM      4  C   UNL     1     133.169 138.567 148.766  1.00  0.00    -0.051 C 
ATOM      5  C   UNL     1     132.686 137.142 148.640  1.00  0.00     0.044 C 
BRANCH   4   6
ATOM      6  C   UNL     1     133.313 139.341 147.527  1.00  0.00     0.003 C 
ATOM      7  C   UNL     1     132.588 140.412 147.161  1.00  0.00     0.001 C 
BRANCH   7   8
ATOM      8  C   UNL     1     132.809 141.110 145.908  1.00  0.00     0.011 C 
ATOM      9  C   UNL     1     131.872 141.676 145.121  1.00  0.00     0.034 C 
ATOM     10  C   UNL     1     130.391 141.707 145.370  1.00  0.00     0.052 C 
BRANCH   9  11
ATOM     11  C   UNL     1     132.269 142.358 143.860  1.00  0.00     0.331 C 
ATOM     12  O   UNL     1     131.505 142.675 142.964  1.00  0.00    -0.247 OA
BRANCH  11  13
ATOM     13  O   UNL     1     133.582 142.619 143.761  1.00  0.00    -0.478 OA
ATOM     14  H   UNL     1     133.918 141.888 143.202  1.00  0.00     0.297 HD
ENDBRANCH  11  13
ENDBRANCH   9  11
ENDBRANCH   7   8
ENDBRANCH   4   6
ENDBRANCH   1   3
BRANCH   2  15
ATOM     15  C   UNL     1     132.567 138.561 153.570  1.00  0.00     0.003 C 
ATOM     16  C   UNL     1     133.383 138.817 154.616  1.00  0.00    -0.051 C 
ATOM     17  C   UNL     1     134.552 139.771 154.577  1.00  0.00     0.044 C 
BRANCH  16  18
ATOM     18  C   UNL     1     133.122 138.122 155.882  1.00  0.00     0.003 C 
ATOM     19  C   UNL     1     133.799 138.271 157.034  1.00  0.00     0.001 C 
BRANCH  19  20
ATOM     20  C   UNL     1     133.459 137.532 158.235  1.00  0.00     0.011 C 
ATOM     21  C   UNL     1     134.069 137.618 159.435  1.00  0.00     0.034 C 
ATOM     22  C   UNL     1     135.231 138.491 159.799  1.00  0.00     0.052 C 
BRANCH  21  23
ATOM     23  C   UNL     1     133.513 136.743 160.501  1.00  0.00     0.331 C 
ATOM     24  O   UNL     1     134.106 136.301 161.468  1.00  0.00    -0.247 OA
BRANCH  23  25
ATOM     25  O   UNL     1     132.215 136.457 160.304  1.00  0.00    -0.478 OA
ATOM     26  H   UNL     1     132.148 135.514 160.562  1.00  0.00     0.297 HD
ENDBRANCH  23  25
ENDBRANCH  21  23
ENDBRANCH  19  20
ENDBRANCH  16  18
ENDBRANCH   2  15
TORSDOF 10
ENDMDL
