MODEL 1
REMARK VINA RESULT:    -3.614      0.000      0.000
REMARK INTER + INTRA:          -4.924
REMARK INTER:                  -4.565
REMARK INTRA:                  -0.360
REMARK UNBOUND:                -0.360
REMARK SMILES CC(=O)Nc1c(I)c(C(=O)O)c(I)c(N(C)C(C)=O)c1I
REMARK SMILES IDX 5 1 6 2 7 3 8 4 12 5 13 6 14 7 20 8 21 9 4 10 2 11 3 12 1 13
REMARK SMILES IDX 9 15 10 16 11 17 15 19 16 20 17 21 19 22 18 23
REMARK H PARENT 4 14 11 18
ROOT
ATOM      1  C   UNL     1     133.638 139.745 147.576  1.00  0.00     0.071 A 
ATOM      2  C   UNL     1     133.672 138.390 147.186  1.00  0.00     0.053 A 
ATOM      3  I   UNL     1     133.770 137.910 145.098  1.00  0.00    -0.041 I 
ATOM      4  C   UNL     1     133.605 137.371 148.153  1.00  0.00     0.090 A 
ATOM      5  C   UNL     1     133.539 137.689 149.521  1.00  0.00     0.054 A 
ATOM      6  I   UNL     1     133.330 136.125 150.975  1.00  0.00    -0.041 I 
ATOM      7  C   UNL     1     133.581 139.041 149.933  1.00  0.00     0.073 A 
ATOM      8  C   UNL     1     133.653 140.064 148.954  1.00  0.00     0.063 A 
ATOM      9  I   UNL     1     134.101 142.086 149.581  1.00  0.00    -0.040 I 
ENDROOT
BRANCH   1  10
ATOM     10  N   UNL     1     133.604 140.742 146.561  1.00  0.00    -0.324 N 
ATOM     11  C   UNL     1     132.396 141.226 146.077  1.00  0.00     0.221 C 
ATOM     12  O   UNL     1     131.286 140.875 146.462  1.00  0.00    -0.275 OA
ATOM     13  C   UNL     1     132.568 142.205 144.945  1.00  0.00     0.114 C 
ATOM     14  H   UNL     1     134.308 140.641 145.836  1.00  0.00     0.169 HD
ENDBRANCH   1  10
BRANCH   4  15
ATOM     15  C   UNL     1     133.596 135.967 147.725  1.00  0.00     0.338 C 
ATOM     16  O   UNL     1     134.564 135.255 147.560  1.00  0.00    -0.246 OA
BRANCH  15  17
ATOM     17  O   UNL     1     132.333 135.558 147.514  1.00  0.00    -0.478 OA
ATOM     18  H   UNL     1     132.091 135.943 146.646  1.00  0.00     0.297 HD
ENDBRANCH  15  17
ENDBRANCH   4  15
BRANCH   7  19
ATOM     19  N   UNL     1     133.578 139.370 151.321  1.00  0.00    -0.314 N 
ATOM     20  C   UNL     1     132.278 139.566 151.954  1.00  0.00     0.153 C 
BRANCH  19  21
ATOM     21  C   UNL     1     134.799 139.521 151.975  1.00  0.00     0.223 C 
ATOM     22  O   UNL     1     135.887 139.458 151.400  1.00  0.00    -0.275 OA
ATOM     23  C   UNL     1     134.732 139.783 153.459  1.00  0.00     0.115 C 
ENDBRANCH  19  21
ENDBRANCH   7  19
TORSDOF 5
ENDMDL
