MODEL 1
REMARK VINA RESULT:    -5.037      0.000      0.000
REMARK INTER + INTRA:          -5.123
REMARK INTER:                  -5.479
REMARK INTRA:                   0.356
REMARK UNBOUND:                 0.356
REMARK SMILES O=C1c2c(O)c(=O)ccn2N([C@@H]2c3ccccc3SCc3c2ccc(F)c3F)[C@@H]2COCCN12
REMARK SMILES IDX 1 1 2 2 3 3 4 4 6 5 7 6 8 7 9 8 10 9 11 10 29 11 30 12 31 13
REMARK SMILES IDX 32 14 33 15 34 16 5 17 12 19 13 20 22 21 14 22 18 23 21 24
REMARK SMILES IDX 23 25 15 26 17 27 19 28 20 29 27 30 24 31 16 32 25 33 28 34
REMARK SMILES IDX 26 35
REMARK H PARENT 5 18
ROOT
ATOM      1  O   UNL     1     133.816 141.562 142.420  1.00  0.00    -0.267 OA
ATOM      2  C   UNL     1     134.315 140.931 143.346  1.00  0.00     0.278 C 
ATOM      3  C   UNL     1     135.792 140.644 143.460  1.00  0.00     0.173 C 
ATOM      4  C   UNL     1     136.659 141.383 142.736  1.00  0.00     0.195 C 
ATOM      5  C   UNL     1     138.112 141.052 142.841  1.00  0.00     0.224 C 
ATOM      6  O   UNL     1     138.935 141.695 142.194  1.00  0.00    -0.286 OA
ATOM      7  C   UNL     1     138.522 139.958 143.738  1.00  0.00     0.076 C 
ATOM      8  C   UNL     1     137.562 139.313 144.409  1.00  0.00     0.115 C 
ATOM      9  N   UNL     1     136.207 139.581 144.298  1.00  0.00    -0.253 N 
ATOM     10  N   UNL     1     135.285 138.993 145.218  1.00  0.00    -0.275 NA
ATOM     11  C   UNL     1     134.169 139.872 145.565  1.00  0.00     0.225 C 
ATOM     12  C   UNL     1     133.087 139.360 146.548  1.00  0.00     0.209 C 
ATOM     13  O   UNL     1     132.069 140.335 146.844  1.00  0.00    -0.375 OA
ATOM     14  C   UNL     1     131.688 141.146 145.722  1.00  0.00     0.182 C 
ATOM     15  C   UNL     1     132.102 140.561 144.372  1.00  0.00     0.150 C 
ATOM     16  N   UNL     1     133.547 140.350 144.338  1.00  0.00    -0.311 N 
ENDROOT
BRANCH   4  17
ATOM     17  O   UNL     1     136.330 142.444 141.917  1.00  0.00    -0.502 OA
ATOM     18  H   UNL     1     137.181 142.854 141.655  1.00  0.00     0.293 HD
ENDBRANCH   4  17
BRANCH  10  19
ATOM     19  C   UNL     1     135.191 137.496 145.280  1.00  0.00     0.165 C 
ATOM     20  C   UNL     1     134.254 136.821 144.237  1.00  0.00    -0.006 A 
ATOM     21  C   UNL     1     135.262 137.100 146.799  1.00  0.00    -0.012 A 
ATOM     22  C   UNL     1     134.072 137.455 142.983  1.00  0.00     0.007 A 
ATOM     23  C   UNL     1     133.710 135.521 144.314  1.00  0.00     0.013 A 
ATOM     24  C   UNL     1     134.350 136.308 147.536  1.00  0.00     0.007 A 
ATOM     25  C   UNL     1     136.362 137.638 147.531  1.00  0.00     0.010 A 
ATOM     26  C   UNL     1     133.328 136.912 141.929  1.00  0.00     0.000 A 
ATOM     27  C   UNL     1     132.971 134.965 143.243  1.00  0.00     0.015 A 
ATOM     28  S   UNL     1     133.838 134.424 145.703  1.00  0.00    -0.121 SA
ATOM     29  C   UNL     1     133.199 135.576 146.926  1.00  0.00     0.114 C 
ATOM     30  C   UNL     1     134.538 136.130 148.925  1.00  0.00     0.163 A 
ATOM     31  C   UNL     1     136.539 137.439 148.903  1.00  0.00     0.043 A 
ATOM     32  C   UNL     1     132.766 135.662 142.061  1.00  0.00     0.001 A 
ATOM     33  C   UNL     1     135.614 136.688 149.596  1.00  0.00     0.159 A 
ATOM     34  F   UNL     1     133.662 135.395 149.626  1.00  0.00    -0.203 F 
ATOM     35  F   UNL     1     135.766 136.499 150.913  1.00  0.00    -0.204 F 
ENDBRANCH  10  19
TORSDOF 2
ENDMDL
