MODEL 1
REMARK VINA RESULT:    -7.218      0.000      0.000
REMARK INTER + INTRA:         -11.724
REMARK INTER:                 -10.171
REMARK INTRA:                  -1.552
REMARK UNBOUND:                -1.552
REMARK SMILES O=C(c1c(F)ccc(NS(=O)(=O)N2CC[C@@H](F)C2)c1F)c1c[nH]c2ncc(-c3cnc(C4CC4)nc3)cc12
REMARK SMILES IDX 3 1 4 2 5 3 6 4 7 5 8 6 19 7 20 8 2 9 1 10 21 11 22 12 38 13
REMARK SMILES IDX 23 14 37 15 24 16 27 17 25 18 26 19 28 21 29 22 36 23 30 24
REMARK SMILES IDX 35 25 31 26 32 27 33 28 34 29 9 30 10 32 11 33 12 34 13 35
REMARK SMILES IDX 14 36 18 37 15 38 16 39 17 40
REMARK H PARENT 23 20 9 31
ROOT
ATOM      1  C   UNL     1     134.345 138.672 148.768  1.00  0.00     0.096 A 
ATOM      2  C   UNL     1     135.269 138.309 147.794  1.00  0.00     0.137 A 
ATOM      3  F   UNL     1     136.516 137.951 148.132  1.00  0.00    -0.206 F 
ATOM      4  C   UNL     1     134.915 138.318 146.446  1.00  0.00     0.042 A 
ATOM      5  C   UNL     1     133.621 138.687 146.070  1.00  0.00     0.033 A 
ATOM      6  C   UNL     1     132.687 139.044 147.046  1.00  0.00     0.086 A 
ATOM      7  C   UNL     1     133.055 139.027 148.396  1.00  0.00     0.161 A 
ATOM      8  F   UNL     1     132.153 139.400 149.318  1.00  0.00    -0.204 F 
ENDROOT
BRANCH   1   9
ATOM      9  C   UNL     1     134.709 138.654 150.184  1.00  0.00     0.201 C 
ATOM     10  O   UNL     1     134.998 139.721 150.717  1.00  0.00    -0.288 OA
BRANCH   9  11
ATOM     11  C   UNL     1     134.725 137.378 150.896  1.00  0.00     0.050 A 
ATOM     12  C   UNL     1     135.693 136.385 150.823  1.00  0.00     0.097 A 
ATOM     13  C   UNL     1     133.740 136.911 151.830  1.00  0.00     0.030 A 
ATOM     14  N   UNL     1     135.322 135.354 151.650  1.00  0.00    -0.345 N 
ATOM     15  C   UNL     1     132.535 137.412 152.363  1.00  0.00     0.023 A 
ATOM     16  C   UNL     1     134.146 135.659 152.270  1.00  0.00     0.138 A 
ATOM     17  C   UNL     1     131.821 136.635 153.290  1.00  0.00     0.004 A 
ATOM     18  N   UNL     1     133.523 134.855 153.147  1.00  0.00    -0.238 NA
ATOM     19  C   UNL     1     132.369 135.389 153.621  1.00  0.00     0.122 A 
ATOM     20  H   UNL     1     135.824 134.491 151.803  1.00  0.00     0.167 HD
BRANCH  17  21
ATOM     21  C   UNL     1     130.562 137.104 153.877  1.00  0.00     0.020 A 
ATOM     22  C   UNL     1     130.344 138.412 154.266  1.00  0.00     0.123 A 
ATOM     23  C   UNL     1     129.473 136.283 154.098  1.00  0.00     0.123 A 
ATOM     24  N   UNL     1     129.199 138.870 154.820  1.00  0.00    -0.240 NA
ATOM     25  N   UNL     1     128.305 136.686 154.646  1.00  0.00    -0.240 NA
ATOM     26  C   UNL     1     128.200 137.983 154.998  1.00  0.00     0.131 A 
BRANCH  26  27
ATOM     27  C   UNL     1     126.906 138.465 155.605  1.00  0.00     0.058 C 
ATOM     28  C   UNL     1     125.843 139.092 154.731  1.00  0.00     0.012 C 
ATOM     29  C   UNL     1     125.613 137.734 155.321  1.00  0.00     0.012 C 
ENDBRANCH  26  27
ENDBRANCH  17  21
ENDBRANCH   9  11
ENDBRANCH   1   9
BRANCH   6  30
ATOM     30  N   UNL     1     131.337 139.393 146.690  1.00  0.00    -0.268 N 
ATOM     31  H   UNL     1     130.987 138.789 145.938  1.00  0.00     0.181 HD
BRANCH  30  32
ATOM     32  S   UNL     1     131.115 140.978 146.148  1.00  0.00     0.301 S 
ATOM     33  O   UNL     1     132.290 141.728 146.524  1.00  0.00    -0.189 OA
ATOM     34  O   UNL     1     129.790 141.419 146.512  1.00  0.00    -0.189 OA
BRANCH  32  35
ATOM     35  N   UNL     1     131.162 140.755 144.482  1.00  0.00    -0.182 NA
ATOM     36  C   UNL     1     132.303 141.380 143.755  1.00  0.00     0.107 C 
ATOM     37  C   UNL     1     129.906 141.146 143.766  1.00  0.00     0.141 C 
ATOM     38  C   UNL     1     131.680 142.431 142.848  1.00  0.00     0.056 C 
ATOM     39  C   UNL     1     130.370 141.785 142.464  1.00  0.00     0.183 C 
ATOM     40  F   UNL     1     130.615 140.814 141.541  1.00  0.00    -0.246 F 
ENDBRANCH  32  35
ENDBRANCH  30  32
ENDBRANCH   6  30
TORSDOF 7
ENDMDL
