MODEL 1
REMARK VINA RESULT:    -8.051      0.000      0.000
REMARK INTER + INTRA:          -8.051
REMARK INTER:                  -8.051
REMARK INTRA:                   0.000
REMARK UNBOUND:                 0.000
REMARK SMILES NC1=NC[C@@H]2c3ccccc3Cc3ccccc3N12
REMARK SMILES IDX 1 1 2 2 3 3 4 4 5 5 6 6 7 7 8 8 9 9 10 10 11 11 12 12 13 13
REMARK SMILES IDX 14 14 15 15 16 16 17 17 18 18 19 19
REMARK H PARENT 1 20 1 21
ROOT
ATOM      1  N   UNL     1     134.512 135.018 151.608  1.00  0.00    -0.369 N 
ATOM      2  C   UNL     1     133.289 135.013 152.183  1.00  0.00     0.196 C 
ATOM      3  N   UNL     1     132.549 133.933 152.136  1.00  0.00    -0.250 NA
ATOM      4  C   UNL     1     131.329 134.347 152.885  1.00  0.00     0.176 C 
ATOM      5  C   UNL     1     131.753 135.553 153.758  1.00  0.00     0.143 C 
ATOM      6  C   UNL     1     130.671 136.522 154.188  1.00  0.00    -0.020 A 
ATOM      7  C   UNL     1     129.314 136.364 153.862  1.00  0.00     0.006 A 
ATOM      8  C   UNL     1     128.353 137.261 154.334  1.00  0.00     0.000 A 
ATOM      9  C   UNL     1     128.725 138.325 155.147  1.00  0.00     0.000 A 
ATOM     10  C   UNL     1     130.063 138.497 155.492  1.00  0.00     0.004 A 
ATOM     11  C   UNL     1     131.035 137.599 155.025  1.00  0.00    -0.038 A 
ATOM     12  C   UNL     1     132.492 137.809 155.367  1.00  0.00     0.073 C 
ATOM     13  C   UNL     1     133.285 138.207 154.144  1.00  0.00    -0.020 A 
ATOM     14  C   UNL     1     133.898 139.480 154.159  1.00  0.00     0.006 A 
ATOM     15  C   UNL     1     134.597 139.957 153.056  1.00  0.00     0.000 A 
ATOM     16  C   UNL     1     134.676 139.176 151.916  1.00  0.00     0.002 A 
ATOM     17  C   UNL     1     134.076 137.913 151.897  1.00  0.00     0.027 A 
ATOM     18  C   UNL     1     133.391 137.371 153.008  1.00  0.00     0.048 A 
ATOM     19  N   UNL     1     132.842 136.083 152.923  1.00  0.00    -0.303 N 
ATOM     20  H   UNL     1     135.221 135.463 152.176  1.00  0.00     0.159 HD
ATOM     21  H   UNL     1     134.780 134.082 151.325  1.00  0.00     0.159 HD
ENDROOT
TORSDOF 0
ENDMDL
