MODEL 1
REMARK VINA RESULT:    -4.934      0.000      0.000
REMARK INTER + INTRA:          -5.453
REMARK INTER:                  -5.222
REMARK INTRA:                  -0.230
REMARK UNBOUND:                -0.230
REMARK SMILES CN1[C@@H]2CC[C@H]1C=C(c1sccc1Br)C2
REMARK SMILES IDX 1 1 2 2 3 3 4 4 5 5 6 6 7 7 8 8 15 9 9 10 10 11 13 12 11 13
REMARK SMILES IDX 12 14 14 15
REMARK H PARENT
ROOT
ATOM      1  C   UNL     1     126.999 135.868 156.530  1.00  0.00     0.106 C 
ATOM      2  N   UNL     1     128.203 136.560 156.083  1.00  0.00    -0.297 NA
ATOM      3  C   UNL     1     128.225 137.988 156.454  1.00  0.00     0.061 C 
ATOM      4  C   UNL     1     127.328 138.671 155.406  1.00  0.00     0.021 C 
ATOM      5  C   UNL     1     127.336 137.720 154.204  1.00  0.00     0.025 C 
ATOM      6  C   UNL     1     128.328 136.627 154.613  1.00  0.00     0.080 C 
ATOM      7  C   UNL     1     129.727 137.097 154.273  1.00  0.00    -0.003 C 
ATOM      8  C   UNL     1     130.399 137.956 155.073  1.00  0.00    -0.030 C 
ATOM      9  C   UNL     1     129.702 138.454 156.339  1.00  0.00     0.056 C 
ENDROOT
BRANCH   8  10
ATOM     10  C   UNL     1     131.713 138.355 154.666  1.00  0.00     0.044 A 
ATOM     11  S   UNL     1     131.955 138.944 153.062  1.00  0.00    -0.143 S 
ATOM     12  C   UNL     1     132.911 138.373 155.356  1.00  0.00     0.036 A 
ATOM     13  C   UNL     1     133.629 139.186 153.317  1.00  0.00     0.066 A 
ATOM     14  C   UNL     1     134.012 138.843 154.593  1.00  0.00     0.028 A 
ATOM     15  Br  UNL     1     133.158 137.863 157.164  1.00  0.00    -0.049 Br
ENDBRANCH   8  10
TORSDOF 1
ENDMDL
