MODEL 1
REMARK VINA RESULT:    -4.090      0.000      0.000
REMARK INTER + INTRA:          -4.688
REMARK INTER:                  -4.688
REMARK INTRA:                   0.000
REMARK UNBOUND:                 0.000
REMARK SMILES C[C@H]1[C@@H](O)O[C@@H]2O[C@@]3(C)CC[C@H]4[C@H](C)CC[C@@H]1[C@@]24OO3
REMARK SMILES IDX 1 1 2 2 3 3 5 4 6 5 7 6 8 7 9 8 12 9 13 10 14 11 15 12 16 13
REMARK SMILES IDX 17 14 18 15 19 16 20 17 4 18 11 20 10 22
REMARK H PARENT 4 19
REMARK Flexibility Score:    0.900
ROOT
ATOM      1  C   UNL     1     134.961 137.016 151.721  1.00  0.00     0.013 C 
ATOM      2  C   UNL     1     135.081 136.720 150.222  1.00  0.00     0.049 C 
ATOM      3  C   UNL     1     134.315 135.453 149.783  1.00  0.00     0.253 C 
ATOM      4  O   UNL     1     133.063 135.810 149.239  1.00  0.00    -0.320 OA
ATOM      5  C   UNL     1     133.194 136.437 147.960  1.00  0.00     0.292 C 
ATOM      6  O   UNL     1     133.349 135.435 146.958  1.00  0.00    -0.315 OA
ATOM      7  C   UNL     1     134.081 135.855 145.806  1.00  0.00     0.201 C 
ATOM      8  C   UNL     1     134.314 134.596 144.972  1.00  0.00     0.079 C 
ATOM      9  C   UNL     1     133.942 138.662 146.913  1.00  0.00     0.033 C 
ATOM     10  C   UNL     1     133.158 139.820 147.619  1.00  0.00    -0.008 C 
ATOM     11  C   UNL     1     133.105 141.092 146.761  1.00  0.00     0.008 C 
ATOM     12  C   UNL     1     133.708 140.183 148.995  1.00  0.00     0.004 C 
ATOM     13  C   UNL     1     133.782 138.963 149.898  1.00  0.00     0.007 C 
ATOM     14  C   UNL     1     134.761 137.951 149.306  1.00  0.00     0.038 C 
ATOM     15  C   UNL     1     134.325 137.491 147.888  1.00  0.00     0.161 C 
ATOM     16  O   UNL     1     135.511 136.787 147.435  1.00  0.00    -0.221 OA
ATOM     17  O   UNL     1     135.370 136.433 146.039  1.00  0.00    -0.200 OA
ENDROOT
BRANCH   3  18
ATOM     18  O   UNL     1     134.084 134.581 150.875  1.00  0.00    -0.368 OA
ATOM     19  H   UNL     1     134.499 135.028 151.631  1.00  0.00     0.213 HD
ENDBRANCH   3  18
BRANCH   9  20
ATOM     20  C   UNL     1     133.066 138.226 145.688  1.00  0.00     0.013 CG0
ATOM     21  G   UNL     1     132.527 136.797 145.592  1.00  0.00     0.000 G0
ENDBRANCH   9  20
BRANCH   7  22
ATOM     22  C   UNL     1     133.333 136.895 144.981  1.00  0.00     0.069 CG0
ATOM     23  G   UNL     1     132.402 137.815 145.773  1.00  0.00     0.000 G0
ENDBRANCH   7  22
TORSDOF 1
ENDMDL
