MODEL 1
REMARK VINA RESULT:    -3.841      0.000      0.000
REMARK INTER + INTRA:          -5.856
REMARK INTER:                  -5.413
REMARK INTRA:                  -0.443
REMARK UNBOUND:                -0.443
REMARK SMILES CCN(CC)C(=S)SSC(=S)N(CC)CC
REMARK SMILES IDX 8 1 6 2 3 3 7 4 2 5 1 6 4 7 5 8 9 9 10 10 11 11 12 12 13 13
REMARK SMILES IDX 14 14 15 15 16 16
REMARK H PARENT
ROOT
ATOM      1  S   UNL     1     132.611 136.713 154.823  1.00  0.00    -0.020 SA
ENDROOT
BRANCH   1   2
ATOM      2  C   UNL     1     133.570 137.398 153.496  1.00  0.00     0.147 C 
ATOM      3  N   UNL     1     133.922 138.764 153.566  1.00  0.00    -0.357 N 
ATOM      4  S   UNL     1     134.046 136.328 152.277  1.00  0.00    -0.052 S 
BRANCH   3   5
ATOM      5  C   UNL     1     133.715 139.612 154.757  1.00  0.00     0.114 C 
ATOM      6  C   UNL     1     135.014 140.163 155.330  1.00  0.00     0.027 C 
ENDBRANCH   3   5
BRANCH   3   7
ATOM      7  C   UNL     1     134.662 139.414 152.467  1.00  0.00     0.114 C 
ATOM      8  C   UNL     1     133.741 140.069 151.446  1.00  0.00     0.027 C 
ENDBRANCH   3   7
ENDBRANCH   1   2
BRANCH   1   9
ATOM      9  S   UNL     1     130.708 136.662 154.034  1.00  0.00    -0.020 SA
BRANCH   9  10
ATOM     10  C   UNL     1     129.765 137.589 155.217  1.00  0.00     0.147 C 
ATOM     11  S   UNL     1     130.646 138.502 156.334  1.00  0.00    -0.052 S 
ATOM     12  N   UNL     1     128.359 137.467 155.191  1.00  0.00    -0.357 N 
BRANCH  12  13
ATOM     13  C   UNL     1     127.505 138.321 156.041  1.00  0.00     0.114 C 
ATOM     14  C   UNL     1     126.345 138.944 155.277  1.00  0.00     0.027 C 
ENDBRANCH  12  13
BRANCH  12  15
ATOM     15  C   UNL     1     127.634 136.438 154.421  1.00  0.00     0.114 C 
ATOM     16  C   UNL     1     127.283 135.201 155.236  1.00  0.00     0.027 C 
ENDBRANCH  12  15
ENDBRANCH   9  10
ENDBRANCH   1   9
TORSDOF 7
ENDMDL
