MODEL 1
REMARK VINA RESULT:    -5.789      0.000      0.000
REMARK INTER + INTRA:          -9.297
REMARK INTER:                  -7.820
REMARK INTRA:                  -1.477
REMARK UNBOUND:                -1.477
REMARK SMILES CSc1nc(NC2CCCC2)c([N+](=O)[O-])c(NC2CCCC2)n1
REMARK SMILES IDX 3 1 4 2 5 3 12 4 16 5 23 6 2 7 1 8 6 9 7 11 8 12 11 13 9 14
REMARK SMILES IDX 10 15 17 16 18 18 19 19 22 20 20 21 21 22 13 23 14 24 15 25
REMARK H PARENT 6 10 17 17
ROOT
ATOM      1  C   UNL     1     131.945 138.350 154.413  1.00  0.00     0.191 A 
ATOM      2  N   UNL     1     130.621 138.416 154.204  1.00  0.00    -0.198 NA
ATOM      3  C   UNL     1     129.805 138.435 155.275  1.00  0.00     0.212 A 
ATOM      4  C   UNL     1     130.341 138.329 156.547  1.00  0.00     0.353 A 
ATOM      5  C   UNL     1     131.714 138.257 156.692  1.00  0.00     0.212 A 
ATOM      6  N   UNL     1     132.525 138.284 155.622  1.00  0.00    -0.198 NA
ENDROOT
BRANCH   1   7
ATOM      7  S   UNL     1     132.966 138.352 152.960  1.00  0.00    -0.090 SA
ATOM      8  C   UNL     1     134.285 139.474 153.484  1.00  0.00     0.094 C 
ENDBRANCH   1   7
BRANCH   3   9
ATOM      9  N   UNL     1     128.414 138.508 155.063  1.00  0.00    -0.361 N 
ATOM     10  H   UNL     1     128.184 139.402 154.622  1.00  0.00     0.162 HD
BRANCH   9  11
ATOM     11  C   UNL     1     127.800 137.390 154.340  1.00  0.00     0.081 C 
ATOM     12  C   UNL     1     128.380 136.031 154.776  1.00  0.00     0.025 C 
ATOM     13  C   UNL     1     126.303 137.316 154.685  1.00  0.00     0.025 C 
ATOM     14  C   UNL     1     127.230 135.261 155.415  1.00  0.00     0.002 C 
ATOM     15  C   UNL     1     125.994 135.831 154.746  1.00  0.00     0.002 C 
ENDBRANCH   9  11
ENDBRANCH   3   9
BRANCH   5  16
ATOM     16  N   UNL     1     132.393 138.194 157.915  1.00  0.00    -0.361 N 
ATOM     17  H   UNL     1     132.418 139.166 158.232  1.00  0.00     0.162 HD
BRANCH  16  18
ATOM     18  C   UNL     1     133.785 137.713 157.794  1.00  0.00     0.081 C 
ATOM     19  C   UNL     1     134.780 138.742 158.337  1.00  0.00     0.025 C 
ATOM     20  C   UNL     1     133.996 136.529 158.733  1.00  0.00     0.025 C 
ATOM     21  C   UNL     1     134.776 138.549 159.853  1.00  0.00     0.002 C 
ATOM     22  C   UNL     1     134.207 137.155 160.108  1.00  0.00     0.002 C 
ENDBRANCH  16  18
ENDBRANCH   5  16
BRANCH   4  23
ATOM     23  N   UNL     1     129.481 138.415 157.685  1.00  0.00     0.070 N 
ATOM     24  O   UNL     1     128.556 137.590 157.751  1.00  0.00    -0.258 OA
ATOM     25  O   UNL     1     129.740 139.269 158.544  1.00  0.00    -0.258 OA
ENDBRANCH   4  23
TORSDOF 6
ENDMDL
