MODEL 1
REMARK VINA RESULT:    -6.254      0.000      0.000
REMARK INTER + INTRA:          -7.690
REMARK INTER:                  -7.351
REMARK INTRA:                  -0.339
REMARK UNBOUND:                -0.339
REMARK SMILES O=C1N=C(NCc2cccs2)S/C1=C\c1ccc2ncccc2c1
REMARK SMILES IDX 1 1 2 2 3 3 4 4 5 5 12 6 13 7 14 8 15 10 16 11 24 12 17 13
REMARK SMILES IDX 23 14 18 15 22 16 19 17 21 18 20 19 6 20 7 21 8 22 11 23
REMARK SMILES IDX 9 24 10 25
REMARK H PARENT 5 9
ROOT
ATOM      1  O   UNL     1     134.091 134.578 151.079  1.00  0.00    -0.266 OA
ATOM      2  C   UNL     1     133.929 135.787 151.001  1.00  0.00     0.286 C 
ATOM      3  N   UNL     1     134.300 136.566 149.928  1.00  0.00    -0.184 NA
ATOM      4  C   UNL     1     134.016 137.813 150.091  1.00  0.00     0.170 C 
ATOM      5  N   UNL     1     134.248 138.834 149.224  1.00  0.00    -0.359 N 
ATOM      6  S   UNL     1     133.241 138.247 151.596  1.00  0.00    -0.046 SA
ATOM      7  C   UNL     1     133.286 136.599 152.078  1.00  0.00     0.083 C 
ATOM      8  C   UNL     1     132.854 136.053 153.224  1.00  0.00     0.029 C 
ATOM      9  H   UNL     1     133.721 139.678 149.419  1.00  0.00     0.163 HD
ENDROOT
BRANCH   8  10
ATOM     10  C   UNL     1     132.225 136.773 154.334  1.00  0.00    -0.024 A 
ATOM     11  C   UNL     1     132.987 137.349 155.350  1.00  0.00     0.010 A 
ATOM     12  C   UNL     1     130.835 136.914 154.364  1.00  0.00     0.018 A 
ATOM     13  C   UNL     1     132.359 138.042 156.392  1.00  0.00     0.029 A 
ATOM     14  C   UNL     1     130.209 137.612 155.414  1.00  0.00     0.001 A 
ATOM     15  C   UNL     1     130.980 138.186 156.447  1.00  0.00     0.070 A 
ATOM     16  C   UNL     1     128.817 137.763 155.472  1.00  0.00     0.012 A 
ATOM     17  N   UNL     1     130.425 138.861 157.469  1.00  0.00    -0.256 NA
ATOM     18  C   UNL     1     128.241 138.460 156.527  1.00  0.00     0.021 A 
ATOM     19  C   UNL     1     129.081 138.985 157.491  1.00  0.00     0.112 A 
ENDBRANCH   8  10
BRANCH   5  20
ATOM     20  C   UNL     1     134.463 138.594 147.810  1.00  0.00     0.161 C 
BRANCH  20  21
ATOM     21  C   UNL     1     133.551 139.385 146.920  1.00  0.00     0.024 A 
ATOM     22  C   UNL     1     132.967 140.612 147.172  1.00  0.00     0.017 A 
ATOM     23  S   UNL     1     133.136 138.800 145.364  1.00  0.00    -0.147 S 
ATOM     24  C   UNL     1     132.168 141.065 146.084  1.00  0.00     0.012 A 
ATOM     25  C   UNL     1     132.170 140.172 145.035  1.00  0.00     0.065 A 
ENDBRANCH  20  21
ENDBRANCH   5  20
TORSDOF 3
ENDMDL
