MODEL 1
REMARK VINA RESULT:    -4.525      0.000      0.000
REMARK INTER + INTRA:          -5.402
REMARK INTER:                  -5.055
REMARK INTRA:                  -0.348
REMARK UNBOUND:                -0.348
REMARK SMILES Cc1nc(Cn2cnc3c2c(=O)n(C)c(=O)n3C)no1
REMARK SMILES IDX 5 1 4 2 2 3 3 4 20 5 19 6 1 7 6 8 7 9 10 10 8 11 9 12 11 13
REMARK SMILES IDX 17 14 12 15 13 16 15 17 16 18 18 19 14 20
REMARK H PARENT
ROOT
ATOM      1  C   UNL     1     134.669 136.853 150.766  1.00  0.00     0.205 C 
ENDROOT
BRANCH   1   2
ATOM      2  C   UNL     1     133.681 135.931 151.377  1.00  0.00     0.191 A 
ATOM      3  C   UNL     1     131.984 135.263 152.399  1.00  0.00     0.223 A 
ATOM      4  N   UNL     1     132.549 136.385 152.013  1.00  0.00    -0.194 NA
ATOM      5  O   UNL     1     132.685 134.150 152.038  1.00  0.00    -0.340 OA
ATOM      6  N   UNL     1     133.815 134.599 151.354  1.00  0.00    -0.061 NA
ATOM      7  C   UNL     1     130.734 135.043 153.148  1.00  0.00     0.114 C 
ENDBRANCH   1   2
BRANCH   1   8
ATOM      8  N   UNL     1     134.012 137.742 149.825  1.00  0.00    -0.317 N 
ATOM      9  C   UNL     1     133.522 138.989 150.132  1.00  0.00     0.203 A 
ATOM     10  C   UNL     1     133.736 137.523 148.503  1.00  0.00     0.152 A 
ATOM     11  N   UNL     1     132.966 139.566 149.087  1.00  0.00    -0.218 NA
ATOM     12  C   UNL     1     133.110 138.659 148.082  1.00  0.00     0.167 A 
ATOM     13  C   UNL     1     133.985 136.417 147.643  1.00  0.00     0.282 C 
ATOM     14  N   UNL     1     132.679 138.817 146.787  1.00  0.00    -0.279 N 
ATOM     15  O   UNL     1     134.481 135.367 148.036  1.00  0.00    -0.267 OA
ATOM     16  N   UNL     1     133.582 136.650 146.324  1.00  0.00    -0.261 N 
ATOM     17  C   UNL     1     132.898 137.794 145.865  1.00  0.00     0.332 C 
ATOM     18  O   UNL     1     132.505 137.874 144.697  1.00  0.00    -0.247 OA
ATOM     19  C   UNL     1     131.996 140.035 146.391  1.00  0.00     0.157 C 
ATOM     20  C   UNL     1     133.796 135.593 145.355  1.00  0.00     0.159 C 
ENDBRANCH   1   8
TORSDOF 2
ENDMDL
