MODEL 1
REMARK VINA RESULT:    -6.264      0.000      0.000
REMARK INTER + INTRA:          -8.422
REMARK INTER:                  -7.728
REMARK INTRA:                  -0.694
REMARK UNBOUND:                -0.694
REMARK SMILES C/C(=N\NC(=S)NNC(=S)Nc1ccccc1Cl)c1ccccn1
REMARK SMILES IDX 4 1 5 2 6 3 7 4 3 7 2 8 1 9 19 10 20 11 24 12 21 13 23 14
REMARK SMILES IDX 22 15 8 16 9 17 10 18 11 19 12 22 13 23 17 24 14 25 16 26
REMARK SMILES IDX 15 27 18 28
REMARK H PARENT 4 5 7 6 8 20 11 21
ROOT
ATOM      1  N   UNL     1     133.473 134.959 145.840  1.00  0.00    -0.252 N 
ATOM      2  C   UNL     1     133.161 136.155 146.448  1.00  0.00     0.205 C 
ATOM      3  S   UNL     1     133.458 137.603 145.669  1.00  0.00    -0.038 S 
ATOM      4  N   UNL     1     132.580 136.014 147.688  1.00  0.00    -0.273 N 
ATOM      5  H   UNL     1     133.900 134.992 144.920  1.00  0.00     0.193 HD
ATOM      6  H   UNL     1     132.641 135.077 148.089  1.00  0.00     0.190 HD
ENDROOT
BRANCH   1   7
ATOM      7  N   UNL     1     133.273 133.775 146.489  1.00  0.00    -0.176 NA
ATOM      8  C   UNL     1     133.241 132.670 145.792  1.00  0.00     0.083 C 
ATOM      9  C   UNL     1     133.411 132.631 144.285  1.00  0.00     0.071 C 
BRANCH   8  10
ATOM     10  C   UNL     1     133.028 131.370 146.511  1.00  0.00     0.086 A 
ATOM     11  C   UNL     1     132.284 130.354 145.917  1.00  0.00     0.030 A 
ATOM     12  N   UNL     1     133.586 131.254 147.741  1.00  0.00    -0.255 NA
ATOM     13  C   UNL     1     132.105 129.163 146.616  1.00  0.00     0.004 A 
ATOM     14  C   UNL     1     133.395 130.087 148.393  1.00  0.00     0.112 A 
ATOM     15  C   UNL     1     132.671 129.024 147.879  1.00  0.00     0.020 A 
ENDBRANCH   8  10
ENDBRANCH   1   7
BRANCH   4  16
ATOM     16  N   UNL     1     132.472 137.090 148.579  1.00  0.00    -0.274 N 
ATOM     17  C   UNL     1     133.187 137.097 149.779  1.00  0.00     0.189 C 
ATOM     18  S   UNL     1     134.374 135.965 150.132  1.00  0.00    -0.039 S 
ATOM     19  N   UNL     1     132.808 138.195 150.538  1.00  0.00    -0.330 N 
ATOM     20  H   UNL     1     131.585 137.586 148.529  1.00  0.00     0.190 HD
ATOM     21  H   UNL     1     132.441 138.963 149.984  1.00  0.00     0.169 HD
BRANCH  19  22
ATOM     22  C   UNL     1     133.060 138.553 151.887  1.00  0.00     0.059 A 
ATOM     23  C   UNL     1     132.174 138.298 152.936  1.00  0.00     0.028 A 
ATOM     24  C   UNL     1     134.240 139.267 152.175  1.00  0.00     0.064 A 
ATOM     25  C   UNL     1     132.476 138.702 154.243  1.00  0.00     0.002 A 
ATOM     26  C   UNL     1     134.543 139.671 153.479  1.00  0.00     0.023 A 
ATOM     27  C   UNL     1     133.660 139.381 154.515  1.00  0.00     0.002 A 
ATOM     28  Cl  UNL     1     135.369 139.667 150.921  1.00  0.00    -0.082 Cl
ENDBRANCH  19  22
ENDBRANCH   4  16
TORSDOF 4
ENDMDL
