MODEL 1
REMARK VINA RESULT:    -4.155      0.000      0.000
REMARK INTER + INTRA:          -5.905
REMARK INTER:                  -5.369
REMARK INTRA:                  -0.535
REMARK UNBOUND:                -0.535
REMARK SMILES NC(=O)CCCC[C@H]1CCSS1
REMARK SMILES IDX 5 1 4 2 2 3 1 4 3 5 6 8 7 9 8 10 9 11 12 12 10 13 11 14
REMARK H PARENT 1 6 1 7
ROOT
ATOM      1  C   UNL     1     134.825 138.140 150.478  1.00  0.00     0.010 C 
ENDROOT
BRANCH   1   2
ATOM      2  C   UNL     1     135.530 136.879 150.974  1.00  0.00     0.100 C 
BRANCH   2   3
ATOM      3  C   UNL     1     134.613 135.682 151.129  1.00  0.00     0.217 C 
ATOM      4  N   UNL     1     134.752 135.029 152.319  1.00  0.00    -0.370 N 
ATOM      5  O   UNL     1     133.810 135.295 150.292  1.00  0.00    -0.275 OA
ATOM      6  H   UNL     1     135.559 135.166 152.913  1.00  0.00     0.159 HD
ATOM      7  H   UNL     1     134.228 134.168 152.425  1.00  0.00     0.159 HD
ENDBRANCH   2   3
ENDBRANCH   1   2
BRANCH   1   8
ATOM      8  C   UNL     1     133.794 138.749 151.439  1.00  0.00     0.002 C 
BRANCH   8   9
ATOM      9  C   UNL     1     134.420 139.511 152.613  1.00  0.00     0.015 C 
BRANCH   9  10
ATOM     10  C   UNL     1     133.646 139.337 153.928  1.00  0.00     0.059 C 
ATOM     11  C   UNL     1     133.339 137.861 154.205  1.00  0.00     0.027 C 
ATOM     12  S   UNL     1     134.591 139.922 155.375  1.00  0.00    -0.091 SA
ATOM     13  C   UNL     1     132.746 137.707 155.601  1.00  0.00     0.083 C 
ATOM     14  S   UNL     1     133.849 138.582 156.736  1.00  0.00    -0.094 SA
ENDBRANCH   9  10
ENDBRANCH   8   9
ENDBRANCH   1   8
TORSDOF 5
ENDMDL
