MODEL 1
REMARK VINA RESULT:    -3.556      0.000      0.000
REMARK INTER + INTRA:          -6.336
REMARK INTER:                  -5.219
REMARK INTRA:                  -1.117
REMARK UNBOUND:                -1.117
REMARK SMILES O=S(=O)(O)CCSSCCS(=O)(=O)O
REMARK SMILES IDX 7 1 6 2 5 3 2 4 1 5 3 6 4 7 8 9 9 10 10 11 11 12 12 13 13 14
REMARK SMILES IDX 14 15
REMARK H PARENT 4 8 14 16
ROOT
ATOM      1  S   UNL     1     135.514 138.462 149.442  1.00  0.00    -0.093 SA
ENDROOT
BRANCH   1   2
ATOM      2  C   UNL     1     135.538 137.044 148.285  1.00  0.00     0.100 C 
BRANCH   2   3
ATOM      3  C   UNL     1     134.418 137.087 147.266  1.00  0.00     0.179 C 
BRANCH   3   4
ATOM      4  S   UNL     1     133.569 135.521 147.187  1.00  0.00     0.265 S 
ATOM      5  O   UNL     1     133.501 135.063 145.821  1.00  0.00    -0.200 OA
ATOM      6  O   UNL     1     134.026 134.675 148.266  1.00  0.00    -0.200 OA
BRANCH   4   7
ATOM      7  O   UNL     1     132.100 136.024 147.628  1.00  0.00    -0.286 OA
ATOM      8  H   UNL     1     131.741 135.377 148.274  1.00  0.00     0.234 HD
ENDBRANCH   4   7
ENDBRANCH   3   4
ENDBRANCH   2   3
ENDBRANCH   1   2
BRANCH   1   9
ATOM      9  S   UNL     1     133.515 138.760 149.829  1.00  0.00    -0.093 SA
BRANCH   9  10
ATOM     10  C   UNL     1     133.270 137.950 151.449  1.00  0.00     0.100 C 
BRANCH  10  11
ATOM     11  C   UNL     1     132.884 136.492 151.296  1.00  0.00     0.179 C 
BRANCH  11  12
ATOM     12  S   UNL     1     134.185 135.474 151.965  1.00  0.00     0.265 S 
ATOM     13  O   UNL     1     135.441 136.180 151.878  1.00  0.00    -0.200 OA
ATOM     14  O   UNL     1     133.729 134.841 153.181  1.00  0.00    -0.200 OA
BRANCH  12  15
ATOM     15  O   UNL     1     134.177 134.320 150.837  1.00  0.00    -0.286 OA
ATOM     16  H   UNL     1     133.534 134.578 150.140  1.00  0.00     0.234 HD
ENDBRANCH  12  15
ENDBRANCH  11  12
ENDBRANCH  10  11
ENDBRANCH   9  10
ENDBRANCH   1   9
TORSDOF 9
ENDMDL
