MODEL 1
REMARK VINA RESULT:    -5.055      0.000      0.000
REMARK INTER + INTRA:          -7.289
REMARK INTER:                  -6.385
REMARK INTRA:                  -0.904
REMARK UNBOUND:                -0.904
REMARK SMILES C=C1c2c(Cl)ccc(O)c2C(=O)C2=C(O)[C@]3(O)C(O)=C(C(N)=O)C(=O)[C@@H](N(C)C)[C@@H]3[C@@H](O)[C@H]12
REMARK SMILES IDX 1 1 2 2 3 3 4 4 5 5 6 6 7 7 8 8 10 9 11 10 12 11 13 12 14 13
REMARK SMILES IDX 16 14 18 15 20 16 24 17 25 18 26 19 30 20 31 21 33 22 32 23
REMARK SMILES IDX 9 25 15 27 27 29 28 30 29 31 17 32 19 34 21 36 22 37 23 38
REMARK H PARENT 32 24 9 26 15 28 17 33 19 35 22 39 22 40
ROOT
ATOM      1  C   UNL     1     131.180 141.208 140.384  1.00  0.00     0.014 C 
ATOM      2  C   UNL     1     130.838 140.696 141.580  1.00  0.00    -0.035 C 
ATOM      3  C   UNL     1     129.476 140.911 142.133  1.00  0.00     0.011 A 
ATOM      4  C   UNL     1     128.275 140.681 141.429  1.00  0.00     0.049 A 
ATOM      5  Cl  UNL     1     128.235 139.978 139.846  1.00  0.00    -0.084 Cl
ATOM      6  C   UNL     1     127.034 140.954 142.017  1.00  0.00     0.025 A 
ATOM      7  C   UNL     1     126.966 141.438 143.319  1.00  0.00     0.048 A 
ATOM      8  C   UNL     1     128.138 141.624 144.044  1.00  0.00     0.127 A 
ATOM      9  C   UNL     1     129.392 141.344 143.473  1.00  0.00     0.073 A 
ATOM     10  C   UNL     1     130.622 141.492 144.303  1.00  0.00     0.197 C 
ATOM     11  O   UNL     1     130.511 142.065 145.383  1.00  0.00    -0.289 OA
ATOM     12  C   UNL     1     131.899 140.870 143.801  1.00  0.00     0.051 C 
ATOM     13  C   UNL     1     133.077 141.048 144.433  1.00  0.00     0.140 C 
ATOM     14  C   UNL     1     134.387 140.359 144.027  1.00  0.00     0.186 C 
ATOM     15  C   UNL     1     135.396 141.332 143.407  1.00  0.00     0.149 C 
ATOM     16  C   UNL     1     136.176 141.035 142.342  1.00  0.00     0.125 C 
ATOM     17  C   UNL     1     136.100 139.661 141.756  1.00  0.00     0.189 C 
ATOM     18  O   UNL     1     136.610 139.419 140.658  1.00  0.00    -0.292 OA
ATOM     19  C   UNL     1     135.420 138.552 142.573  1.00  0.00     0.138 C 
ATOM     20  C   UNL     1     134.100 139.139 143.130  1.00  0.00     0.091 C 
ATOM     21  C   UNL     1     133.118 139.530 142.001  1.00  0.00     0.135 C 
ATOM     22  C   UNL     1     131.756 139.999 142.577  1.00  0.00     0.086 C 
ENDROOT
BRANCH  21  23
ATOM     23  O   UNL     1     132.925 138.380 141.171  1.00  0.00    -0.392 OA
ATOM     24  H   UNL     1     132.038 138.013 141.352  1.00  0.00     0.211 HD
ENDBRANCH  21  23
BRANCH   8  25
ATOM     25  O   UNL     1     127.978 142.078 145.326  1.00  0.00    -0.507 OA
ATOM     26  H   UNL     1     127.274 142.770 145.319  1.00  0.00     0.293 HD
ENDBRANCH   8  25
BRANCH  13  27
ATOM     27  O   UNL     1     133.166 141.813 145.587  1.00  0.00    -0.508 OA
ATOM     28  H   UNL     1     134.107 141.780 145.860  1.00  0.00     0.293 HD
ENDBRANCH  13  27
BRANCH  19  29
ATOM     29  N   UNL     1     136.351 138.050 143.644  1.00  0.00    -0.299 NA
ATOM     30  C   UNL     1     137.685 137.740 143.092  1.00  0.00     0.105 C 
ATOM     31  C   UNL     1     135.826 136.803 144.238  1.00  0.00     0.105 C 
ENDBRANCH  19  29
BRANCH  14  32
ATOM     32  O   UNL     1     134.974 139.925 145.266  1.00  0.00    -0.374 OA
ATOM     33  H   UNL     1     135.703 140.549 145.464  1.00  0.00     0.212 HD
ENDBRANCH  14  32
BRANCH  15  34
ATOM     34  O   UNL     1     135.472 142.558 144.072  1.00  0.00    -0.508 OA
ATOM     35  H   UNL     1     136.308 143.021 143.833  1.00  0.00     0.293 HD
ENDBRANCH  15  34
BRANCH  16  36
ATOM     36  C   UNL     1     137.109 142.071 141.804  1.00  0.00     0.255 C 
ATOM     37  N   UNL     1     138.130 141.645 141.022  1.00  0.00    -0.365 N 
ATOM     38  O   UNL     1     136.963 143.267 142.050  1.00  0.00    -0.269 OA
ATOM     39  H   UNL     1     138.756 142.327 140.614  1.00  0.00     0.159 HD
ATOM     40  H   UNL     1     138.231 140.667 140.752  1.00  0.00     0.159 HD
ENDBRANCH  16  36
TORSDOF 7
ENDMDL
