MODEL 1
REMARK VINA RESULT:    -5.059      0.000      0.000
REMARK INTER + INTRA:          -7.294
REMARK INTER:                  -6.389
REMARK INTRA:                  -0.904
REMARK UNBOUND:                -0.904
REMARK SMILES C=C1c2c(Cl)ccc(O)c2C(=O)C2=C(O)[C@]3(O)C(O)=C(C(N)=O)C(=O)[C@@H](N(C)C)[C@@H]3[C@@H](O)[C@H]12
REMARK SMILES IDX 1 1 2 2 3 3 4 4 5 5 6 6 7 7 8 8 10 9 11 10 12 11 13 12 14 13
REMARK SMILES IDX 16 14 18 15 20 16 24 17 25 18 26 19 30 20 31 21 33 22 32 23
REMARK SMILES IDX 9 25 15 27 27 29 28 30 29 31 17 32 19 34 21 36 22 37 23 38
REMARK H PARENT 32 24 9 26 15 28 17 33 19 35 22 39 22 40
ROOT
ATOM      1  C   UNL     1     131.189 141.201 140.384  1.00  0.00     0.014 C 
ATOM      2  C   UNL     1     130.846 140.692 141.580  1.00  0.00    -0.035 C 
ATOM      3  C   UNL     1     129.484 140.909 142.133  1.00  0.00     0.011 A 
ATOM      4  C   UNL     1     128.283 140.678 141.430  1.00  0.00     0.049 A 
ATOM      5  Cl  UNL     1     128.244 139.972 139.848  1.00  0.00    -0.084 Cl
ATOM      6  C   UNL     1     127.042 140.952 142.017  1.00  0.00     0.025 A 
ATOM      7  C   UNL     1     126.974 141.439 143.318  1.00  0.00     0.048 A 
ATOM      8  C   UNL     1     128.145 141.626 144.043  1.00  0.00     0.127 A 
ATOM      9  C   UNL     1     129.400 141.345 143.472  1.00  0.00     0.073 A 
ATOM     10  C   UNL     1     130.630 141.494 144.302  1.00  0.00     0.197 C 
ATOM     11  O   UNL     1     130.518 142.069 145.381  1.00  0.00    -0.289 OA
ATOM     12  C   UNL     1     131.907 140.870 143.801  1.00  0.00     0.051 C 
ATOM     13  C   UNL     1     133.084 141.050 144.434  1.00  0.00     0.140 C 
ATOM     14  C   UNL     1     134.394 140.359 144.030  1.00  0.00     0.186 C 
ATOM     15  C   UNL     1     135.404 141.331 143.408  1.00  0.00     0.149 C 
ATOM     16  C   UNL     1     136.184 141.032 142.343  1.00  0.00     0.125 C 
ATOM     17  C   UNL     1     136.107 139.656 141.760  1.00  0.00     0.189 C 
ATOM     18  O   UNL     1     136.618 139.412 140.663  1.00  0.00    -0.292 OA
ATOM     19  C   UNL     1     135.427 138.549 142.579  1.00  0.00     0.138 C 
ATOM     20  C   UNL     1     134.108 139.138 143.135  1.00  0.00     0.091 C 
ATOM     21  C   UNL     1     133.125 139.527 142.004  1.00  0.00     0.135 C 
ATOM     22  C   UNL     1     131.763 139.997 142.579  1.00  0.00     0.086 C 
ENDROOT
BRANCH  21  23
ATOM     23  O   UNL     1     132.933 138.375 141.177  1.00  0.00    -0.392 OA
ATOM     24  H   UNL     1     133.455 138.490 140.360  1.00  0.00     0.211 HD
ENDBRANCH  21  23
BRANCH   8  25
ATOM     25  O   UNL     1     127.985 142.083 145.323  1.00  0.00    -0.507 OA
ATOM     26  H   UNL     1     127.816 141.305 145.906  1.00  0.00     0.293 HD
ENDBRANCH   8  25
BRANCH  13  27
ATOM     27  O   UNL     1     133.174 141.817 145.585  1.00  0.00    -0.508 OA
ATOM     28  H   UNL     1     133.358 142.732 145.287  1.00  0.00     0.293 HD
ENDBRANCH  13  27
BRANCH  19  29
ATOM     29  N   UNL     1     136.358 138.049 143.652  1.00  0.00    -0.299 NA
ATOM     30  C   UNL     1     137.692 137.737 143.101  1.00  0.00     0.105 C 
ATOM     31  C   UNL     1     135.832 136.803 144.247  1.00  0.00     0.105 C 
ENDBRANCH  19  29
BRANCH  14  32
ATOM     32  O   UNL     1     134.981 139.928 145.269  1.00  0.00    -0.374 OA
ATOM     33  H   UNL     1     135.120 138.961 145.192  1.00  0.00     0.212 HD
ENDBRANCH  14  32
BRANCH  15  34
ATOM     34  O   UNL     1     135.480 142.558 144.070  1.00  0.00    -0.508 OA
ATOM     35  H   UNL     1     134.648 143.069 143.931  1.00  0.00     0.293 HD
ENDBRANCH  15  34
BRANCH  16  36
ATOM     36  C   UNL     1     137.117 142.066 141.803  1.00  0.00     0.255 C 
ATOM     37  N   UNL     1     138.138 141.639 141.021  1.00  0.00    -0.365 N 
ATOM     38  O   UNL     1     136.972 143.262 142.047  1.00  0.00    -0.269 OA
ATOM     39  H   UNL     1     138.764 142.319 140.613  1.00  0.00     0.159 HD
ATOM     40  H   UNL     1     138.239 140.660 140.754  1.00  0.00     0.159 HD
ENDBRANCH  16  36
TORSDOF 7
ENDMDL
