MODEL 1
REMARK VINA RESULT:    -5.537      0.000      0.000
REMARK INTER + INTRA:         -10.365
REMARK INTER:                  -8.450
REMARK INTRA:                  -1.915
REMARK UNBOUND:                -1.915
REMARK SMILES CNC(=O)[C@@H](NC(=O)[C@H](CC(C)C)[C@H](O)C(=O)NO)C(C)(C)C
REMARK SMILES IDX 9 1 7 2 6 3 8 4 5 6 3 7 2 8 4 9 1 10 20 12 21 13 22 14 23 15
REMARK SMILES IDX 10 16 11 17 12 18 13 19 14 20 15 21 16 23 17 24 18 25 19 27
REMARK H PARENT 6 5 2 11 15 22 18 26 19 28
ROOT
ATOM      1  C   UNL     1     133.641 137.759 148.640  1.00  0.00     0.117 C 
ENDROOT
BRANCH   1   2
ATOM      2  C   UNL     1     134.272 137.519 150.015  1.00  0.00     0.226 C 
ATOM      3  N   UNL     1     133.386 137.631 151.070  1.00  0.00    -0.343 N 
ATOM      4  O   UNL     1     135.450 137.216 150.179  1.00  0.00    -0.275 OA
ATOM      5  H   UNL     1     132.426 137.374 150.866  1.00  0.00     0.164 HD
BRANCH   3   6
ATOM      6  C   UNL     1     133.812 137.258 152.423  1.00  0.00     0.176 C 
BRANCH   6   7
ATOM      7  C   UNL     1     133.279 135.821 152.636  1.00  0.00     0.242 C 
ATOM      8  N   UNL     1     131.935 135.655 152.378  1.00  0.00    -0.357 N 
ATOM      9  O   UNL     1     134.021 134.900 152.985  1.00  0.00    -0.273 OA
ATOM     10  C   UNL     1     131.293 134.390 152.636  1.00  0.00     0.142 C 
ATOM     11  H   UNL     1     131.353 136.483 152.397  1.00  0.00     0.163 HD
ENDBRANCH   6   7
BRANCH   6  12
ATOM     12  C   UNL     1     133.317 138.274 153.497  1.00  0.00    -0.009 C 
ATOM     13  C   UNL     1     131.976 138.884 153.034  1.00  0.00     0.013 C 
ATOM     14  C   UNL     1     134.326 139.428 153.657  1.00  0.00     0.013 C 
ATOM     15  C   UNL     1     133.101 137.619 154.875  1.00  0.00     0.013 C 
ENDBRANCH   6  12
ENDBRANCH   3   6
ENDBRANCH   1   2
BRANCH   1  16
ATOM     16  C   UNL     1     132.877 139.107 148.626  1.00  0.00     0.019 C 
BRANCH  16  17
ATOM     17  C   UNL     1     133.151 140.014 147.406  1.00  0.00    -0.017 C 
ATOM     18  C   UNL     1     134.191 139.402 146.465  1.00  0.00     0.007 C 
ATOM     19  C   UNL     1     131.856 140.250 146.619  1.00  0.00     0.007 C 
ENDBRANCH  16  17
ENDBRANCH   1  16
BRANCH   1  20
ATOM     20  C   UNL     1     132.848 136.520 148.190  1.00  0.00     0.217 C 
BRANCH  20  21
ATOM     21  O   UNL     1     132.270 135.845 149.316  1.00  0.00    -0.382 OA
ATOM     22  H   UNL     1     131.378 135.552 149.059  1.00  0.00     0.211 HD
ENDBRANCH  20  21
BRANCH  20  23
ATOM     23  C   UNL     1     133.655 135.541 147.322  1.00  0.00     0.272 C 
ATOM     24  O   UNL     1     134.860 135.619 147.101  1.00  0.00    -0.270 OA
ATOM     25  N   UNL     1     132.863 134.577 146.731  1.00  0.00    -0.236 N 
ATOM     26  H   UNL     1     132.028 134.287 147.237  1.00  0.00     0.198 HD
BRANCH  25  27
ATOM     27  O   UNL     1     133.575 133.561 146.045  1.00  0.00    -0.289 OA
ATOM     28  H   UNL     1     132.903 132.848 145.969  1.00  0.00     0.246 HD
ENDBRANCH  25  27
ENDBRANCH  20  23
ENDBRANCH   1  20
TORSDOF 10
ENDMDL
