MODEL 1
REMARK VINA RESULT:    -6.905      0.000      0.000
REMARK INTER + INTRA:          -9.202
REMARK INTER:                  -8.924
REMARK INTRA:                  -0.279
REMARK UNBOUND:                -0.279
REMARK SMILES N=C(N)c1ccc(/N=N/Nc2ccc(C(=N)N)cc2)cc1
REMARK SMILES IDX 8 1 9 2 7 3 4 4 5 5 21 6 6 7 20 8 2 9 1 10 3 11 10 15 11 17
REMARK SMILES IDX 12 18 19 19 13 20 18 21 14 22 15 23 16 24 17 25
REMARK H PARENT 1 12 3 13 3 14 10 16 16 26 17 27 17 28
ROOT
ATOM      1  N   UNL     1     130.618 137.767 154.760  1.00  0.00    -0.133 NA
ATOM      2  N   UNL     1     131.239 136.690 154.843  1.00  0.00    -0.069 NA
ENDROOT
BRANCH   1   3
ATOM      3  C   UNL     1     129.236 137.518 154.781  1.00  0.00     0.087 A 
ATOM      4  C   UNL     1     126.473 137.031 154.765  1.00  0.00     0.016 A 
ATOM      5  C   UNL     1     127.369 135.961 154.693  1.00  0.00     0.014 A 
ATOM      6  C   UNL     1     126.951 138.344 154.836  1.00  0.00     0.014 A 
ATOM      7  C   UNL     1     128.745 136.208 154.699  1.00  0.00     0.031 A 
ATOM      8  C   UNL     1     128.329 138.584 154.839  1.00  0.00     0.031 A 
BRANCH   4   9
ATOM      9  C   UNL     1     125.007 136.785 154.758  1.00  0.00     0.122 C 
ATOM     10  N   UNL     1     124.414 136.206 153.763  1.00  0.00    -0.284 NA
ATOM     11  N   UNL     1     124.231 137.165 155.807  1.00  0.00    -0.384 N 
ATOM     12  H   UNL     1     125.079 135.985 153.015  1.00  0.00     0.189 HD
ATOM     13  H   UNL     1     124.526 137.932 156.396  1.00  0.00     0.158 HD
ATOM     14  H   UNL     1     123.241 137.154 155.587  1.00  0.00     0.158 HD
ENDBRANCH   4   9
ENDBRANCH   1   3
BRANCH   2  15
ATOM     15  N   UNL     1     132.548 137.010 154.803  1.00  0.00    -0.260 N 
ATOM     16  H   UNL     1     133.177 136.265 155.081  1.00  0.00     0.192 HD
BRANCH  15  17
ATOM     17  C   UNL     1     133.014 137.843 153.770  1.00  0.00     0.058 A 
ATOM     18  C   UNL     1     132.561 137.728 152.447  1.00  0.00     0.028 A 
ATOM     19  C   UNL     1     133.875 138.906 154.085  1.00  0.00     0.028 A 
ATOM     20  C   UNL     1     132.997 138.613 151.454  1.00  0.00     0.014 A 
ATOM     21  C   UNL     1     134.316 139.794 153.098  1.00  0.00     0.014 A 
ATOM     22  C   UNL     1     133.880 139.643 151.780  1.00  0.00     0.016 A 
BRANCH  22  23
ATOM     23  C   UNL     1     134.349 140.592 150.739  1.00  0.00     0.122 C 
ATOM     24  N   UNL     1     133.833 141.773 150.606  1.00  0.00    -0.284 NA
ATOM     25  N   UNL     1     135.347 140.251 149.881  1.00  0.00    -0.384 N 
ATOM     26  H   UNL     1     133.112 141.941 151.315  1.00  0.00     0.189 HD
ATOM     27  H   UNL     1     135.730 141.048 149.387  1.00  0.00     0.158 HD
ATOM     28  H   UNL     1     136.026 139.555 150.158  1.00  0.00     0.158 HD
ENDBRANCH  22  23
ENDBRANCH  15  17
ENDBRANCH   2  15
TORSDOF 5
ENDMDL
