MODEL 1
REMARK VINA RESULT:    -4.863      0.000      0.000
REMARK INTER + INTRA:          -5.261
REMARK INTER:                  -5.147
REMARK INTRA:                  -0.114
REMARK UNBOUND:                -0.114
REMARK SMILES c1ccc2[nH]c(-c3cscn3)nc2c1
REMARK SMILES IDX 1 1 2 2 3 3 4 4 5 5 6 6 12 7 13 8 14 9 7 11 8 12 11 13 9 14
REMARK SMILES IDX 10 15
REMARK H PARENT 5 10
ROOT
ATOM      1  C   UNL     1     125.594 137.027 154.821  1.00  0.00     0.002 A 
ATOM      2  C   UNL     1     126.067 135.745 155.111  1.00  0.00     0.002 A 
ATOM      3  C   UNL     1     127.438 135.482 155.220  1.00  0.00     0.028 A 
ATOM      4  C   UNL     1     128.298 136.564 155.024  1.00  0.00     0.066 A 
ATOM      5  N   UNL     1     129.665 136.680 155.053  1.00  0.00    -0.337 N 
ATOM      6  C   UNL     1     129.999 137.985 154.790  1.00  0.00     0.158 A 
ATOM      7  N   UNL     1     128.916 138.711 154.594  1.00  0.00    -0.227 NA
ATOM      8  C   UNL     1     127.858 137.849 154.735  1.00  0.00     0.089 A 
ATOM      9  C   UNL     1     126.481 138.094 154.629  1.00  0.00     0.030 A 
ATOM     10  H   UNL     1     130.314 135.931 155.237  1.00  0.00     0.168 HD
ENDROOT
BRANCH   6  11
ATOM     11  C   UNL     1     131.467 138.538 154.730  1.00  0.00     0.116 A 
ATOM     12  C   UNL     1     132.224 138.566 153.575  1.00  0.00     0.098 A 
ATOM     13  N   UNL     1     132.097 139.037 155.856  1.00  0.00    -0.241 NA
ATOM     14  S   UNL     1     133.771 139.238 153.906  1.00  0.00    -0.130 S 
ATOM     15  C   UNL     1     133.309 139.435 155.545  1.00  0.00     0.176 A 
ENDBRANCH   6  11
TORSDOF 1
ENDMDL
