MODEL 1
REMARK VINA RESULT:    -4.355      0.000      0.000
REMARK INTER + INTRA:          -6.161
REMARK INTER:                  -5.373
REMARK INTRA:                  -0.788
REMARK UNBOUND:                -0.788
REMARK SMILES CCC[C@@H](C)C1(CC)C(=O)NC(=S)NC1=O
REMARK SMILES IDX 4 1 5 2 3 3 2 4 1 5 6 6 9 7 15 8 10 9 11 10 14 11 16 12
REMARK SMILES IDX 12 13 13 14 7 17 8 18
REMARK H PARENT 11 15 14 16
ROOT
ATOM      1  C   UNL     1     134.504 137.200 151.660  1.00  0.00     0.011 C 
ATOM      2  C   UNL     1     134.480 135.668 151.808  1.00  0.00     0.009 C 
ENDROOT
BRANCH   1   3
ATOM      3  C   UNL     1     133.289 137.832 152.395  1.00  0.00     0.004 C 
BRANCH   3   4
ATOM      4  C   UNL     1     133.637 138.456 153.751  1.00  0.00    -0.003 C 
ATOM      5  C   UNL     1     134.480 139.712 153.582  1.00  0.00     0.004 C 
ENDBRANCH   3   4
ENDBRANCH   1   3
BRANCH   1   6
ATOM      6  C   UNL     1     134.636 137.691 150.159  1.00  0.00     0.131 C 
ATOM      7  C   UNL     1     133.327 138.329 149.710  1.00  0.00     0.242 C 
ATOM      8  C   UNL     1     135.826 138.645 150.111  1.00  0.00     0.242 C 
ATOM      9  O   UNL     1     132.328 137.681 149.403  1.00  0.00    -0.273 OA
ATOM     10  N   UNL     1     133.273 139.696 149.685  1.00  0.00    -0.302 N 
ATOM     11  N   UNL     1     135.559 139.979 149.956  1.00  0.00    -0.302 N 
ATOM     12  O   UNL     1     136.990 138.274 150.250  1.00  0.00    -0.273 OA
ATOM     13  C   UNL     1     134.338 140.535 149.755  1.00  0.00     0.179 C 
ATOM     14  S   UNL     1     134.156 142.176 149.583  1.00  0.00    -0.040 S 
ATOM     15  H   UNL     1     132.378 140.094 149.428  1.00  0.00     0.172 HD
ATOM     16  H   UNL     1     136.364 140.592 149.968  1.00  0.00     0.172 HD
BRANCH   6  17
ATOM     17  C   UNL     1     134.956 136.502 149.204  1.00  0.00     0.024 C 
ATOM     18  C   UNL     1     135.235 136.909 147.756  1.00  0.00     0.005 C 
ENDBRANCH   6  17
ENDBRANCH   1   6
TORSDOF 4
ENDMDL
