MODEL 1
REMARK VINA RESULT:    -2.933      0.000      0.000
REMARK INTER + INTRA:          -7.732
REMARK INTER:                  -4.991
REMARK INTRA:                  -2.741
REMARK UNBOUND:                -2.741
REMARK SMILES NCCCNCCCCNCCCN
REMARK SMILES IDX 7 1 6 2 5 3 4 5 3 6 2 7 1 8 8 11 9 12 10 13 11 15 12 16
REMARK SMILES IDX 13 17 14 18
REMARK H PARENT 5 4 1 9 1 10 10 14 14 19 14 20
ROOT
ATOM      1  C   UNL     1     132.599 137.006 155.129  1.00  0.00     0.017 C 
ENDROOT
BRANCH   1   2
ATOM      2  C   UNL     1     132.399 138.521 155.019  1.00  0.00     0.081 C 
BRANCH   2   3
ATOM      3  N   UNL     1     132.775 139.052 153.712  1.00  0.00    -0.317 NA
ATOM      4  H   UNL     1     132.707 138.317 152.996  1.00  0.00     0.122 HD
BRANCH   3   5
ATOM      5  C   UNL     1     134.137 139.582 153.676  1.00  0.00     0.082 C 
BRANCH   5   6
ATOM      6  C   UNL     1     134.653 139.680 152.234  1.00  0.00     0.030 C 
BRANCH   6   7
ATOM      7  C   UNL     1     133.561 139.934 151.187  1.00  0.00     0.079 C 
BRANCH   7   8
ATOM      8  N   UNL     1     132.730 138.761 150.926  1.00  0.00    -0.330 NA
ATOM      9  H   UNL     1     132.943 138.042 151.619  1.00  0.00     0.118 HD
ATOM     10  H   UNL     1     131.750 139.008 151.072  1.00  0.00     0.118 HD
ENDBRANCH   7   8
ENDBRANCH   6   7
ENDBRANCH   5   6
ENDBRANCH   3   5
ENDBRANCH   2   3
ENDBRANCH   1   2
BRANCH   1  11
ATOM     11  C   UNL     1     131.846 136.271 154.017  1.00  0.00     0.017 C 
BRANCH  11  12
ATOM     12  C   UNL     1     132.815 135.514 153.104  1.00  0.00     0.081 C 
BRANCH  12  13
ATOM     13  N   UNL     1     133.584 136.388 152.218  1.00  0.00    -0.317 NA
ATOM     14  H   UNL     1     132.986 136.749 151.476  1.00  0.00     0.122 HD
BRANCH  13  15
ATOM     15  C   UNL     1     134.789 135.767 151.668  1.00  0.00     0.082 C 
BRANCH  15  16
ATOM     16  C   UNL     1     135.173 136.367 150.311  1.00  0.00     0.030 C 
BRANCH  16  17
ATOM     17  C   UNL     1     134.215 135.967 149.185  1.00  0.00     0.079 C 
BRANCH  17  18
ATOM     18  N   UNL     1     132.808 136.092 149.545  1.00  0.00    -0.330 NA
ATOM     19  H   UNL     1     132.527 137.072 149.510  1.00  0.00     0.118 HD
ATOM     20  H   UNL     1     132.222 135.608 148.866  1.00  0.00     0.118 HD
ENDBRANCH  17  18
ENDBRANCH  16  17
ENDBRANCH  15  16
ENDBRANCH  13  15
ENDBRANCH  12  13
ENDBRANCH  11  12
ENDBRANCH   1  11
TORSDOF 13
ENDMDL
