MODEL 1
REMARK VINA RESULT:    -6.012      0.000      0.000
REMARK INTER + INTRA:          -6.928
REMARK INTER:                  -7.066
REMARK INTRA:                   0.139
REMARK UNBOUND:                 0.139
REMARK SMILES S=C=Nc1cccc(C2(N3CCCCC3)CCCCC2)c1
REMARK SMILES IDX 4 1 5 2 6 3 7 4 8 5 21 6 3 7 1 8 2 9 9 10 16 11 20 12 17 13
REMARK SMILES IDX 19 14 18 15 10 16 11 17 15 18 12 19 14 20 13 21
REMARK H PARENT
ROOT
ATOM      1  C   UNL     1     133.306 139.410 151.154  1.00  0.00     0.074 A 
ATOM      2  C   UNL     1     134.495 139.899 151.696  1.00  0.00     0.029 A 
ATOM      3  C   UNL     1     134.724 139.812 153.065  1.00  0.00     0.003 A 
ATOM      4  C   UNL     1     133.763 139.242 153.904  1.00  0.00     0.006 A 
ATOM      5  C   UNL     1     132.545 138.743 153.403  1.00  0.00    -0.026 A 
ATOM      6  C   UNL     1     132.338 138.861 152.012  1.00  0.00     0.034 A 
ENDROOT
BRANCH   1   7
ATOM      7  N   UNL     1     133.051 139.528 149.776  1.00  0.00    -0.195 NA
ATOM      8  S   UNL     1     132.739 136.880 148.454  1.00  0.00    -0.006 S 
ATOM      9  C   UNL     1     132.931 138.478 149.262  1.00  0.00     0.064 C 
ENDBRANCH   1   7
BRANCH   5  10
ATOM     10  C   UNL     1     131.459 138.127 154.335  1.00  0.00     0.046 C 
ATOM     11  C   UNL     1     131.829 138.410 155.841  1.00  0.00     0.027 C 
ATOM     12  C   UNL     1     130.081 138.874 154.162  1.00  0.00     0.027 C 
ATOM     13  C   UNL     1     130.771 137.944 156.846  1.00  0.00     0.002 C 
ATOM     14  C   UNL     1     128.992 138.410 155.135  1.00  0.00     0.002 C 
ATOM     15  C   UNL     1     129.422 138.595 156.581  1.00  0.00     0.000 C 
BRANCH  10  16
ATOM     16  N   UNL     1     131.266 136.657 154.088  1.00  0.00    -0.294 NA
ATOM     17  C   UNL     1     132.317 136.004 153.289  1.00  0.00     0.085 C 
ATOM     18  C   UNL     1     129.938 136.290 153.560  1.00  0.00     0.085 C 
ATOM     19  C   UNL     1     132.176 134.478 153.315  1.00  0.00     0.016 C 
ATOM     20  C   UNL     1     129.720 134.774 153.595  1.00  0.00     0.016 C 
ATOM     21  C   UNL     1     130.805 134.038 152.827  1.00  0.00     0.003 C 
ENDBRANCH  10  16
ENDBRANCH   5  10
TORSDOF 3
ENDMDL
