MODEL 1
REMARK VINA RESULT:    -5.590      0.000      0.000
REMARK INTER + INTRA:          -8.302
REMARK INTER:                  -7.388
REMARK INTRA:                  -0.915
REMARK UNBOUND:                -0.915
REMARK SMILES COCCO[C@@H]1c2ccn3c(C)c(C)nc3c2N[C@H](c2ccccc2)[C@H]1O
REMARK SMILES IDX 4 1 3 2 2 3 1 4 5 5 6 6 7 7 26 8 8 9 17 10 19 11 9 12 16 13
REMARK SMILES IDX 18 14 10 15 15 16 11 17 13 18 12 20 14 21 27 22 20 24 21 25
REMARK SMILES IDX 25 26 22 27 24 28 23 29
REMARK H PARENT 18 19 27 23
ROOT
ATOM      1  C   UNL     1     132.719 137.668 152.876  1.00  0.00     0.189 C 
ENDROOT
BRANCH   1   2
ATOM      2  C   UNL     1     133.987 136.881 152.549  1.00  0.00     0.188 C 
BRANCH   2   3
ATOM      3  O   UNL     1     133.811 135.517 152.924  1.00  0.00    -0.382 OA
ATOM      4  C   UNL     1     132.438 135.194 153.099  1.00  0.00     0.195 C 
ENDBRANCH   2   3
ENDBRANCH   1   2
BRANCH   1   5
ATOM      5  O   UNL     1     133.023 138.884 153.560  1.00  0.00    -0.368 OA
BRANCH   5   6
ATOM      6  C   UNL     1     132.141 139.193 154.661  1.00  0.00     0.181 C 
ATOM      7  C   UNL     1     132.868 138.841 155.949  1.00  0.00     0.012 C 
ATOM      8  C   UNL     1     130.777 138.463 154.455  1.00  0.00     0.174 C 
ATOM      9  C   UNL     1     134.247 139.308 156.112  1.00  0.00     0.027 C 
ATOM     10  C   UNL     1     132.250 138.137 156.930  1.00  0.00     0.085 C 
ATOM     11  C   UNL     1     130.039 138.262 155.805  1.00  0.00     0.141 C 
ATOM     12  C   UNL     1     134.912 139.032 157.244  1.00  0.00     0.093 C 
ATOM     13  C   UNL     1     132.965 137.861 158.146  1.00  0.00     0.161 A 
ATOM     14  N   UNL     1     130.946 137.704 156.788  1.00  0.00    -0.372 N 
ATOM     15  N   UNL     1     134.273 138.315 158.253  1.00  0.00    -0.302 N 
ATOM     16  N   UNL     1     132.579 137.243 159.247  1.00  0.00    -0.231 NA
ATOM     17  C   UNL     1     134.733 137.923 159.494  1.00  0.00     0.042 A 
ATOM     18  C   UNL     1     133.667 137.265 160.085  1.00  0.00     0.059 A 
ATOM     19  H   UNL     1     130.535 137.396 157.671  1.00  0.00     0.161 HD
ATOM     20  C   UNL     1     136.101 138.202 159.991  1.00  0.00     0.067 C 
ATOM     21  C   UNL     1     133.589 136.633 161.422  1.00  0.00     0.069 C 
BRANCH   8  22
ATOM     22  O   UNL     1     129.954 139.226 153.541  1.00  0.00    -0.388 OA
ATOM     23  H   UNL     1     129.686 138.645 152.811  1.00  0.00     0.211 HD
ENDBRANCH   8  22
BRANCH  11  24
ATOM     24  C   UNL     1     128.823 137.361 155.677  1.00  0.00    -0.023 A 
ATOM     25  C   UNL     1     128.813 136.273 154.787  1.00  0.00     0.006 A 
ATOM     26  C   UNL     1     127.676 137.603 156.450  1.00  0.00     0.006 A 
ATOM     27  C   UNL     1     127.689 135.453 154.673  1.00  0.00     0.000 A 
ATOM     28  C   UNL     1     126.552 136.782 156.334  1.00  0.00     0.000 A 
ATOM     29  C   UNL     1     126.559 135.709 155.445  1.00  0.00     0.000 A 
ENDBRANCH  11  24
ENDBRANCH   5   6
ENDBRANCH   1   5
TORSDOF 6
ENDMDL
