MODEL 1
REMARK VINA RESULT:    -5.796      0.000      0.000
REMARK INTER + INTRA:          -7.435
REMARK INTER:                  -6.981
REMARK INTRA:                  -0.453
REMARK UNBOUND:                -0.453
REMARK SMILES Nc1ccc(S(=O)(=O)Nc2ccc(Cl)nn2)cc1
REMARK SMILES IDX 6 1 7 2 8 3 5 4 2 5 3 6 18 7 4 8 17 9 1 10 9 13 10 15 11 16
REMARK SMILES IDX 16 17 12 18 15 19 13 20 14 21
REMARK H PARENT 1 11 1 12 9 14
ROOT
ATOM      1  S   UNL     1     133.196 135.657 152.546  1.00  0.00     0.263 S 
ATOM      2  O   UNL     1     134.460 134.981 152.738  1.00  0.00    -0.201 OA
ATOM      3  O   UNL     1     132.172 135.066 151.707  1.00  0.00    -0.201 OA
ENDROOT
BRANCH   1   4
ATOM      4  C   UNL     1     133.474 137.300 151.942  1.00  0.00     0.088 A 
ATOM      5  C   UNL     1     133.892 139.913 151.020  1.00  0.00     0.031 A 
ATOM      6  C   UNL     1     134.387 139.512 152.265  1.00  0.00     0.027 A 
ATOM      7  C   UNL     1     133.108 139.016 150.285  1.00  0.00     0.027 A 
ATOM      8  C   UNL     1     134.196 138.205 152.723  1.00  0.00     0.024 A 
ATOM      9  C   UNL     1     132.909 137.707 150.732  1.00  0.00     0.024 A 
BRANCH   5  10
ATOM     10  N   UNL     1     133.986 141.252 150.624  1.00  0.00    -0.399 N 
ATOM     11  H   UNL     1     133.318 141.513 149.905  1.00  0.00     0.156 HD
ATOM     12  H   UNL     1     134.930 141.549 150.399  1.00  0.00     0.156 HD
ENDBRANCH   5  10
ENDBRANCH   1   4
BRANCH   1  13
ATOM     13  N   UNL     1     132.458 135.888 154.029  1.00  0.00    -0.262 N 
ATOM     14  H   UNL     1     133.124 136.074 154.771  1.00  0.00     0.182 HD
BRANCH  13  15
ATOM     15  C   UNL     1     131.174 136.463 154.079  1.00  0.00     0.162 A 
ATOM     16  C   UNL     1     131.013 137.742 154.586  1.00  0.00     0.053 A 
ATOM     17  N   UNL     1     130.115 135.688 153.781  1.00  0.00    -0.131 NA
ATOM     18  C   UNL     1     129.722 138.249 154.723  1.00  0.00     0.047 A 
ATOM     19  N   UNL     1     128.840 136.181 153.913  1.00  0.00    -0.136 NA
ATOM     20  C   UNL     1     128.666 137.435 154.370  1.00  0.00     0.151 A 
ATOM     21  Cl  UNL     1     127.043 137.959 154.504  1.00  0.00    -0.060 Cl
ENDBRANCH  13  15
ENDBRANCH   1  13
TORSDOF 4
ENDMDL
