MODEL 1
REMARK VINA RESULT:    -5.186      0.000      0.000
REMARK INTER + INTRA:          -5.573
REMARK INTER:                  -5.489
REMARK INTRA:                  -0.084
REMARK UNBOUND:                -0.084
REMARK SMILES CC1(NC2=NS(=O)(=O)c3sc(Cl)cc3N2)CC1
REMARK SMILES IDX 3 1 4 2 5 3 6 4 7 5 8 6 9 7 10 8 11 9 12 10 13 11 14 12
REMARK SMILES IDX 15 13 2 16 16 17 17 18 1 19
REMARK H PARENT 3 14 15 15
ROOT
ATOM      1  N   UNL     1     128.236 136.725 154.296  1.00  0.00    -0.350 N 
ATOM      2  C   UNL     1     129.325 137.347 154.884  1.00  0.00     0.213 C 
ATOM      3  N   UNL     1     129.453 137.496 156.162  1.00  0.00    -0.123 NA
ATOM      4  S   UNL     1     130.700 138.242 156.869  1.00  0.00     0.297 S 
ATOM      5  O   UNL     1     131.474 137.299 157.648  1.00  0.00    -0.198 OA
ATOM      6  O   UNL     1     130.288 139.529 157.386  1.00  0.00    -0.198 OA
ATOM      7  C   UNL     1     131.681 138.604 155.475  1.00  0.00     0.167 A 
ATOM      8  S   UNL     1     133.196 139.346 155.645  1.00  0.00    -0.108 S 
ATOM      9  C   UNL     1     133.428 139.292 153.962  1.00  0.00     0.096 A 
ATOM     10  Cl  UNL     1     134.877 139.917 153.283  1.00  0.00    -0.072 Cl
ATOM     11  C   UNL     1     132.379 138.726 153.275  1.00  0.00     0.060 A 
ATOM     12  C   UNL     1     131.360 138.333 154.178  1.00  0.00     0.074 A 
ATOM     13  N   UNL     1     130.186 137.747 153.871  1.00  0.00    -0.323 N 
ATOM     14  H   UNL     1     127.960 137.160 153.422  1.00  0.00     0.164 HD
ATOM     15  H   UNL     1     130.018 137.364 152.949  1.00  0.00     0.170 HD
ENDROOT
BRANCH   1  16
ATOM     16  C   UNL     1     127.104 136.079 155.013  1.00  0.00     0.038 C 
ATOM     17  C   UNL     1     125.680 136.253 154.540  1.00  0.00     0.030 C 
ATOM     18  C   UNL     1     126.116 136.853 155.851  1.00  0.00     0.030 C 
ATOM     19  C   UNL     1     127.474 134.708 155.543  1.00  0.00     0.034 C 
ENDBRANCH   1  16
TORSDOF 1
ENDMDL
