MODEL 1
REMARK VINA RESULT:    -6.765      0.000      0.000
REMARK INTER + INTRA:          -6.765
REMARK INTER:                  -6.765
REMARK INTRA:                   0.000
REMARK UNBOUND:                 0.000
REMARK SMILES C[n+]1cc2c3c(ccc2c2ccc4cc5c(cc4c21)OCO5)OCO3
REMARK SMILES IDX 1 1 2 2 3 3 4 4 5 5 6 6 7 7 8 8 9 9 10 10 11 11 12 12 13 13
REMARK SMILES IDX 14 14 15 15 16 16 17 17 18 18 19 19 20 20 21 21 22 22 23 23
REMARK SMILES IDX 24 24 25 25
REMARK H PARENT
ROOT
ATOM      1  C   UNL     1     131.357 135.172 152.705  1.00  0.00     0.440 C 
ATOM      2  N   UNL     1     132.211 136.222 152.102  1.00  0.00    -0.200 N 
ATOM      3  C   UNL     1     132.614 135.963 150.838  1.00  0.00     0.321 A 
ATOM      4  C   UNL     1     133.639 136.659 150.226  1.00  0.00     0.092 A 
ATOM      5  C   UNL     1     134.040 136.348 148.929  1.00  0.00     0.179 A 
ATOM      6  C   UNL     1     135.082 136.992 148.313  1.00  0.00     0.166 A 
ATOM      7  C   UNL     1     135.784 137.979 148.952  1.00  0.00     0.051 A 
ATOM      8  C   UNL     1     135.398 138.311 150.258  1.00  0.00     0.014 A 
ATOM      9  C   UNL     1     134.311 137.664 150.936  1.00  0.00     0.006 A 
ATOM     10  C   UNL     1     133.847 137.968 152.256  1.00  0.00     0.055 A 
ATOM     11  C   UNL     1     134.497 138.924 153.053  1.00  0.00     0.016 A 
ATOM     12  C   UNL     1     134.043 139.265 154.322  1.00  0.00     0.010 A 
ATOM     13  C   UNL     1     132.864 138.732 154.825  1.00  0.00    -0.008 A 
ATOM     14  C   UNL     1     132.422 139.197 156.078  1.00  0.00     0.059 A 
ATOM     15  C   UNL     1     131.214 138.758 156.556  1.00  0.00     0.166 A 
ATOM     16  C   UNL     1     130.443 137.904 155.828  1.00  0.00     0.166 A 
ATOM     17  C   UNL     1     130.852 137.421 154.599  1.00  0.00     0.066 A 
ATOM     18  C   UNL     1     132.126 137.773 154.061  1.00  0.00     0.058 A 
ATOM     19  C   UNL     1     132.697 137.301 152.811  1.00  0.00     0.220 A 
ATOM     20  O   UNL     1     129.262 137.617 156.435  1.00  0.00    -0.454 OA
ATOM     21  C   UNL     1     129.386 138.396 157.650  1.00  0.00     0.468 C 
ATOM     22  O   UNL     1     130.632 139.119 157.727  1.00  0.00    -0.454 OA
ATOM     23  O   UNL     1     135.312 136.538 147.055  1.00  0.00    -0.454 OA
ATOM     24  C   UNL     1     134.294 135.527 146.932  1.00  0.00     0.468 C 
ATOM     25  O   UNL     1     133.486 135.393 148.126  1.00  0.00    -0.453 OA
ENDROOT
TORSDOF 0
ENDMDL
