MODEL 1
REMARK VINA RESULT:    -7.523      0.000      0.000
REMARK INTER + INTRA:         -10.445
REMARK INTER:                  -9.721
REMARK INTRA:                  -0.724
REMARK UNBOUND:                -0.724
REMARK SMILES OCCn1cc(-c2ccc3c(c2)CC/C3=N\O)c(-c2ccncc2)n1
REMARK SMILES IDX 4 1 5 2 6 3 18 4 25 5 3 6 2 7 1 8 7 10 8 11 12 12 9 13 11 14
REMARK SMILES IDX 10 15 13 16 15 17 14 18 16 19 17 20 19 22 20 23 24 24 21 25
REMARK SMILES IDX 23 26 22 27
REMARK H PARENT 1 9 17 21
ROOT
ATOM      1  N   UNL     1     134.154 139.785 151.640  1.00  0.00    -0.269 N 
ATOM      2  C   UNL     1     132.945 139.162 151.673  1.00  0.00     0.118 A 
ATOM      3  C   UNL     1     132.719 138.840 152.995  1.00  0.00     0.028 A 
ATOM      4  C   UNL     1     133.865 139.331 153.699  1.00  0.00     0.100 A 
ATOM      5  N   UNL     1     134.741 139.889 152.843  1.00  0.00    -0.172 NA
ENDROOT
BRANCH   1   6
ATOM      6  C   UNL     1     134.829 140.308 150.472  1.00  0.00     0.172 C 
BRANCH   6   7
ATOM      7  C   UNL     1     134.004 141.369 149.762  1.00  0.00     0.179 C 
BRANCH   7   8
ATOM      8  O   UNL     1     133.749 142.467 150.636  1.00  0.00    -0.394 OA
ATOM      9  H   UNL     1     134.286 142.332 151.437  1.00  0.00     0.210 HD
ENDBRANCH   7   8
ENDBRANCH   6   7
ENDBRANCH   1   6
BRANCH   3  10
ATOM     10  C   UNL     1     131.548 138.104 153.436  1.00  0.00    -0.014 A 
ATOM     11  C   UNL     1     131.527 136.696 153.344  1.00  0.00     0.009 A 
ATOM     12  C   UNL     1     130.437 138.792 153.953  1.00  0.00     0.013 A 
ATOM     13  C   UNL     1     130.414 135.969 153.769  1.00  0.00     0.011 A 
ATOM     14  C   UNL     1     129.333 138.064 154.374  1.00  0.00    -0.038 A 
ATOM     15  C   UNL     1     129.341 136.677 154.276  1.00  0.00     0.003 A 
ATOM     16  C   UNL     1     128.060 138.592 154.954  1.00  0.00     0.043 C 
ATOM     17  C   UNL     1     128.073 136.178 154.783  1.00  0.00     0.087 C 
ATOM     18  C   UNL     1     127.213 137.339 155.225  1.00  0.00     0.065 C 
ATOM     19  N   UNL     1     127.771 134.920 154.829  1.00  0.00    -0.093 NA
BRANCH  19  20
ATOM     20  O   UNL     1     126.491 134.742 155.363  1.00  0.00    -0.411 OA
ATOM     21  H   UNL     1     125.919 134.893 154.588  1.00  0.00     0.330 HD
ENDBRANCH  19  20
ENDBRANCH   3  10
BRANCH   4  22
ATOM     22  C   UNL     1     134.161 139.293 155.132  1.00  0.00     0.006 A 
ATOM     23  C   UNL     1     133.631 138.274 155.928  1.00  0.00     0.030 A 
ATOM     24  C   UNL     1     134.984 140.250 155.730  1.00  0.00     0.030 A 
ATOM     25  C   UNL     1     133.926 138.269 157.281  1.00  0.00     0.111 A 
ATOM     26  C   UNL     1     135.218 140.159 157.092  1.00  0.00     0.111 A 
ATOM     27  N   UNL     1     134.704 139.194 157.882  1.00  0.00    -0.265 NA
ENDBRANCH   4  22
TORSDOF 6
ENDMDL
