MODEL 1
REMARK VINA RESULT:    -4.850      0.000      0.000
REMARK INTER + INTRA:          -6.302
REMARK INTER:                  -5.700
REMARK INTRA:                  -0.602
REMARK UNBOUND:                -0.602
REMARK SMILES CCn1c(=O)/c(=C2\Sc3ccccc3N2C)s/c1=C/c1cccc[n+]1CC
REMARK SMILES IDX 3 1 4 2 5 3 6 4 7 5 8 6 9 7 10 8 11 9 12 10 13 11 14 12
REMARK SMILES IDX 15 13 16 14 17 15 18 16 19 17 2 18 1 19 20 20 21 21 25 22
REMARK SMILES IDX 22 23 24 24 23 25 26 26 27 27
REMARK H PARENT
ROOT
ATOM      1  N   UNL     1     132.825 138.610 146.692  1.00  0.00    -0.299 N 
ATOM      2  C   UNL     1     132.954 137.783 147.819  1.00  0.00     0.271 C 
ATOM      3  O   UNL     1     132.825 136.569 147.777  1.00  0.00    -0.268 OA
ATOM      4  C   UNL     1     133.276 138.603 149.034  1.00  0.00     0.125 C 
ATOM      5  C   UNL     1     133.308 138.176 150.321  1.00  0.00     0.103 C 
ATOM      6  S   UNL     1     132.762 136.504 150.719  1.00  0.00    -0.068 SA
ATOM      7  C   UNL     1     132.830 136.903 152.452  1.00  0.00     0.037 A 
ATOM      8  C   UNL     1     132.466 136.062 153.495  1.00  0.00     0.017 A 
ATOM      9  C   UNL     1     132.580 136.535 154.801  1.00  0.00     0.001 A 
ATOM     10  C   UNL     1     133.048 137.832 155.042  1.00  0.00     0.002 A 
ATOM     11  C   UNL     1     133.414 138.669 153.981  1.00  0.00     0.027 A 
ATOM     12  C   UNL     1     133.318 138.204 152.672  1.00  0.00     0.055 A 
ATOM     13  N   UNL     1     133.632 138.910 151.488  1.00  0.00    -0.337 N 
ATOM     14  C   UNL     1     134.558 140.028 151.598  1.00  0.00     0.151 C 
ATOM     15  S   UNL     1     133.496 140.265 148.552  1.00  0.00    -0.109 SA
ATOM     16  C   UNL     1     133.017 139.955 146.909  1.00  0.00     0.105 C 
ATOM     17  C   UNL     1     132.871 141.012 146.091  1.00  0.00     0.116 C 
ENDROOT
BRANCH   1  18
ATOM     18  C   UNL     1     132.520 137.957 145.428  1.00  0.00     0.123 C 
ATOM     19  C   UNL     1     133.749 137.339 144.780  1.00  0.00     0.028 C 
ENDBRANCH   1  18
BRANCH  17  20
ATOM     20  C   UNL     1     132.441 141.075 144.696  1.00  0.00     0.208 A 
ATOM     21  C   UNL     1     133.390 140.898 143.679  1.00  0.00     0.079 A 
ATOM     22  N   UNL     1     131.151 141.377 144.371  1.00  0.00    -0.199 N 
ATOM     23  C   UNL     1     133.009 140.983 142.347  1.00  0.00     0.013 A 
ATOM     24  C   UNL     1     130.775 141.457 143.068  1.00  0.00     0.308 A 
ATOM     25  C   UNL     1     131.688 141.260 142.040  1.00  0.00     0.071 A 
BRANCH  22  26
ATOM     26  C   UNL     1     130.113 141.633 145.409  1.00  0.00     0.354 C 
ATOM     27  C   UNL     1     128.753 141.749 144.749  1.00  0.00     0.083 C 
ENDBRANCH  22  26
ENDBRANCH  17  20
TORSDOF 3
ENDMDL
