MODEL 1
REMARK VINA RESULT:    -5.461      0.000      0.000
REMARK INTER + INTRA:          -8.698
REMARK INTER:                  -7.536
REMARK INTRA:                  -1.162
REMARK UNBOUND:                -1.162
REMARK SMILES CC(C)NC[C@@H](O)COc1cccc2[nH]ccc12
REMARK SMILES IDX 6 1 5 2 4 3 2 5 1 6 3 7 7 8 8 10 9 11 10 12 11 13 18 14
REMARK SMILES IDX 12 15 17 16 14 17 13 18 16 19 15 20
REMARK H PARENT 4 4 7 9 15 21
ROOT
ATOM      1  C   UNL     1     133.404 135.429 152.365  1.00  0.00     0.165 C 
ENDROOT
BRANCH   1   2
ATOM      2  C   UNL     1     133.558 136.712 151.527  1.00  0.00     0.116 C 
BRANCH   2   3
ATOM      3  N   UNL     1     134.546 137.598 152.157  1.00  0.00    -0.312 NA
ATOM      4  H   UNL     1     134.670 137.276 153.121  1.00  0.00     0.123 HD
BRANCH   3   5
ATOM      5  C   UNL     1     134.208 139.027 152.156  1.00  0.00     0.047 C 
ATOM      6  C   UNL     1     132.773 139.305 151.708  1.00  0.00     0.024 C 
ATOM      7  C   UNL     1     134.509 139.704 153.495  1.00  0.00     0.024 C 
ENDBRANCH   3   5
ENDBRANCH   2   3
ENDBRANCH   1   2
BRANCH   1   8
ATOM      8  O   UNL     1     134.711 134.908 152.670  1.00  0.00    -0.388 OA
ATOM      9  H   UNL     1     135.283 135.693 152.772  1.00  0.00     0.211 HD
ENDBRANCH   1   8
BRANCH   1  10
ATOM     10  C   UNL     1     132.659 135.712 153.674  1.00  0.00     0.262 C 
BRANCH  10  11
ATOM     11  O   UNL     1     131.431 136.383 153.336  1.00  0.00    -0.490 OA
BRANCH  11  12
ATOM     12  C   UNL     1     130.989 137.109 154.422  1.00  0.00     0.128 A 
ATOM     13  C   UNL     1     131.946 137.664 155.279  1.00  0.00     0.047 A 
ATOM     14  C   UNL     1     129.617 137.237 154.720  1.00  0.00     0.041 A 
ATOM     15  C   UNL     1     131.547 138.383 156.403  1.00  0.00     0.006 A 
ATOM     16  C   UNL     1     128.413 136.776 154.115  1.00  0.00     0.032 A 
ATOM     17  C   UNL     1     129.251 137.964 155.854  1.00  0.00     0.049 A 
ATOM     18  C   UNL     1     130.191 138.553 156.709  1.00  0.00     0.027 A 
ATOM     19  C   UNL     1     127.359 137.233 154.871  1.00  0.00     0.083 A 
ATOM     20  N   UNL     1     127.875 137.951 155.918  1.00  0.00    -0.361 N 
ATOM     21  H   UNL     1     127.331 138.398 156.642  1.00  0.00     0.166 HD
ENDBRANCH  11  12
ENDBRANCH  10  11
ENDBRANCH   1  10
TORSDOF 7
ENDMDL
