MODEL 1
REMARK VINA RESULT:    -7.724      0.000      0.000
REMARK INTER + INTRA:         -10.390
REMARK INTER:                  -9.530
REMARK INTRA:                  -0.860
REMARK UNBOUND:                -0.860
REMARK SMILES C[C@@H](C(=O)Nc1ccc(Cl)cc1)[C@H]1CC[C@@H](c2ccnc3ccc(F)cc32)CC1
REMARK SMILES IDX 1 1 2 2 3 3 4 4 5 5 6 7 7 8 12 9 8 10 11 11 9 12 10 13 13 14
REMARK SMILES IDX 29 15 14 16 28 17 15 18 16 19 17 20 18 21 27 22 19 23 26 24
REMARK SMILES IDX 21 25 20 26 24 27 22 28 23 29 25 30
REMARK H PARENT 5 6
ROOT
ATOM      1  C   UNL     1     132.929 137.036 155.677  1.00  0.00     0.018 C 
ATOM      2  C   UNL     1     132.501 137.389 154.248  1.00  0.00     0.079 C 
ENDROOT
BRANCH   2   3
ATOM      3  C   UNL     1     131.058 136.920 154.017  1.00  0.00     0.227 C 
ATOM      4  O   UNL     1     130.822 136.089 153.146  1.00  0.00    -0.274 OA
ATOM      5  N   UNL     1     130.130 137.523 154.846  1.00  0.00    -0.326 N 
ATOM      6  H   UNL     1     130.484 138.188 155.521  1.00  0.00     0.169 HD
BRANCH   5   7
ATOM      7  C   UNL     1     128.735 137.318 154.867  1.00  0.00     0.041 A 
ATOM      8  C   UNL     1     127.922 138.460 154.805  1.00  0.00     0.027 A 
ATOM      9  C   UNL     1     128.127 136.063 154.942  1.00  0.00     0.027 A 
ATOM     10  C   UNL     1     126.528 138.347 154.820  1.00  0.00     0.022 A 
ATOM     11  C   UNL     1     126.732 135.947 154.956  1.00  0.00     0.022 A 
ATOM     12  C   UNL     1     125.939 137.088 154.895  1.00  0.00     0.041 A 
ATOM     13  Cl  UNL     1     124.225 136.946 154.912  1.00  0.00    -0.084 Cl
ENDBRANCH   5   7
ENDBRANCH   2   3
BRANCH   2  14
ATOM     14  C   UNL     1     132.688 138.897 153.907  1.00  0.00     0.001 C 
ATOM     15  C   UNL     1     134.167 139.306 153.772  1.00  0.00     0.005 C 
ATOM     16  C   UNL     1     131.945 139.312 152.618  1.00  0.00     0.005 C 
ATOM     17  C   UNL     1     134.836 138.732 152.522  1.00  0.00     0.009 C 
ATOM     18  C   UNL     1     132.580 138.724 151.357  1.00  0.00     0.009 C 
ATOM     19  C   UNL     1     134.069 139.113 151.243  1.00  0.00     0.020 C 
BRANCH  19  20
ATOM     20  C   UNL     1     134.784 138.563 150.010  1.00  0.00    -0.034 A 
ATOM     21  C   UNL     1     135.857 137.676 150.162  1.00  0.00     0.025 A 
ATOM     22  C   UNL     1     134.422 138.959 148.686  1.00  0.00     0.007 A 
ATOM     23  C   UNL     1     136.495 137.189 149.037  1.00  0.00     0.112 A 
ATOM     24  C   UNL     1     133.396 139.885 148.374  1.00  0.00     0.049 A 
ATOM     25  C   UNL     1     135.150 138.390 147.608  1.00  0.00     0.071 A 
ATOM     26  N   UNL     1     136.157 137.523 147.778  1.00  0.00    -0.256 NA
ATOM     27  C   UNL     1     133.102 140.212 147.056  1.00  0.00     0.123 A 
ATOM     28  C   UNL     1     134.827 138.739 146.302  1.00  0.00     0.032 A 
ATOM     29  C   UNL     1     133.807 139.645 146.012  1.00  0.00     0.041 A 
ATOM     30  F   UNL     1     132.126 141.091 146.797  1.00  0.00    -0.207 F 
ENDBRANCH  19  20
ENDBRANCH   2  14
TORSDOF 4
ENDMDL
