MODEL 1
REMARK VINA RESULT:    -6.614      0.000      0.000
REMARK INTER + INTRA:         -13.708
REMARK INTER:                 -11.253
REMARK INTRA:                  -2.455
REMARK UNBOUND:                -2.455
REMARK SMILES C=C1/C(=C\C=C2/CCC[C@]3(C)[C@@H]([C@H](C)CCCC(C)(C)O)CC[C@@H]23)C[C@@H](O)[C@@H](OCCCO)[C@@H]1O
REMARK SMILES IDX 5 1 6 2 7 3 8 4 9 5 10 6 11 7 12 8 22 9 23 10 24 11 4 12
REMARK SMILES IDX 1 13 2 14 3 15 34 16 25 17 28 18 26 19 35 20 29 22 30 23
REMARK SMILES IDX 31 24 32 25 33 26 27 28 13 30 14 31 15 32 16 33 17 34 18 35
REMARK SMILES IDX 19 36 20 37 21 38
REMARK H PARENT 35 21 33 27 27 29 21 39
ROOT
ATOM      1  C   UNL     1     135.257 136.773 149.380  1.00  0.00    -0.000 C 
ATOM      2  C   UNL     1     135.341 137.538 150.485  1.00  0.00    -0.067 C 
ATOM      3  C   UNL     1     136.092 138.854 150.601  1.00  0.00     0.031 C 
ATOM      4  C   UNL     1     135.224 139.973 151.189  1.00  0.00     0.005 C 
ATOM      5  C   UNL     1     134.486 139.564 152.473  1.00  0.00     0.008 C 
ATOM      6  C   UNL     1     133.684 138.253 152.296  1.00  0.00    -0.023 C 
ATOM      7  C   UNL     1     132.510 138.473 151.311  1.00  0.00     0.012 C 
ATOM      8  C   UNL     1     133.197 137.590 153.623  1.00  0.00    -0.002 C 
ATOM      9  C   UNL     1     133.097 136.081 153.251  1.00  0.00     0.005 C 
ATOM     10  C   UNL     1     133.905 135.868 151.968  1.00  0.00     0.009 C 
ATOM     11  C   UNL     1     134.685 137.169 151.802  1.00  0.00     0.021 C 
ENDROOT
BRANCH   1  12
ATOM     12  C   UNL     1     135.879 137.026 148.095  1.00  0.00     0.004 C 
ATOM     13  C   UNL     1     133.428 138.973 147.758  1.00  0.00     0.015 C 
ATOM     14  C   UNL     1     133.926 138.069 146.898  1.00  0.00    -0.021 C 
ATOM     15  C   UNL     1     135.298 137.561 147.002  1.00  0.00    -0.040 C 
ATOM     16  C   UNL     1     133.208 137.561 145.660  1.00  0.00     0.175 C 
ATOM     17  C   UNL     1     136.080 137.632 145.700  1.00  0.00     0.070 C 
ATOM     18  C   UNL     1     133.941 137.956 144.348  1.00  0.00     0.180 C 
ATOM     19  C   UNL     1     135.373 138.469 144.624  1.00  0.00     0.150 C 
BRANCH  16  20
ATOM     20  O   UNL     1     131.859 138.038 145.605  1.00  0.00    -0.386 OA
ATOM     21  H   UNL     1     131.923 139.007 145.531  1.00  0.00     0.211 HD
ENDBRANCH  16  20
BRANCH  18  22
ATOM     22  O   UNL     1     134.080 136.804 143.472  1.00  0.00    -0.372 OA
BRANCH  22  23
ATOM     23  C   UNL     1     133.276 135.699 143.894  1.00  0.00     0.163 C 
BRANCH  23  24
ATOM     24  C   UNL     1     134.184 134.499 144.141  1.00  0.00     0.057 C 
BRANCH  24  25
ATOM     25  C   UNL     1     133.567 133.505 145.119  1.00  0.00     0.158 C 
BRANCH  25  26
ATOM     26  O   UNL     1     132.906 134.191 146.176  1.00  0.00    -0.396 OA
ATOM     27  H   UNL     1     132.795 135.117 145.899  1.00  0.00     0.210 HD
ENDBRANCH  25  26
ENDBRANCH  24  25
ENDBRANCH  23  24
ENDBRANCH  22  23
ENDBRANCH  18  22
BRANCH  19  28
ATOM     28  O   UNL     1     136.142 138.441 143.414  1.00  0.00    -0.390 OA
ATOM     29  H   UNL     1     136.642 137.600 143.455  1.00  0.00     0.211 HD
ENDBRANCH  19  28
ENDBRANCH   1  12
BRANCH   8  30
ATOM     30  C   UNL     1     131.896 138.103 154.314  1.00  0.00    -0.011 C 
ATOM     31  C   UNL     1     132.172 138.707 155.695  1.00  0.00     0.008 C 
BRANCH  30  32
ATOM     32  C   UNL     1     130.861 136.951 154.432  1.00  0.00     0.004 C 
BRANCH  32  33
ATOM     33  C   UNL     1     129.399 137.422 154.480  1.00  0.00     0.003 C 
BRANCH  33  34
ATOM     34  C   UNL     1     128.437 136.237 154.341  1.00  0.00     0.034 C 
BRANCH  34  35
ATOM     35  C   UNL     1     127.401 136.087 155.475  1.00  0.00     0.059 C 
ATOM     36  C   UNL     1     126.005 135.762 154.944  1.00  0.00     0.042 C 
ATOM     37  C   UNL     1     127.350 137.314 156.388  1.00  0.00     0.042 C 
BRANCH  35  38
ATOM     38  O   UNL     1     127.806 134.968 156.276  1.00  0.00    -0.390 OA
ATOM     39  H   UNL     1     127.132 134.274 156.183  1.00  0.00     0.211 HD
ENDBRANCH  35  38
ENDBRANCH  34  35
ENDBRANCH  33  34
ENDBRANCH  32  33
ENDBRANCH  30  32
ENDBRANCH   8  30
TORSDOF 14
ENDMDL
