MODEL 1
REMARK VINA RESULT:    -5.099      0.000      0.000
REMARK INTER + INTRA:          -5.644
REMARK INTER:                  -5.993
REMARK INTRA:                   0.349
REMARK UNBOUND:                 0.349
REMARK SMILES Nc1ncnc2c1ncn2[C@@H]1O[C@H](CO)C[C@@H]1F
REMARK SMILES IDX 11 1 12 2 13 3 16 4 17 5 18 6 10 7 2 8 3 9 7 10 4 11 6 12
REMARK SMILES IDX 8 13 5 14 9 15 1 16 14 19 15 20
REMARK H PARENT 1 17 1 18 15 21
ROOT
ATOM      1  C   UNL     1     128.266 147.148 152.274  1.00  0.00     0.256 C 
ATOM      2  O   UNL     1     128.888 146.152 153.119  1.00  0.00    -0.349 OA
ATOM      3  C   UNL     1     129.151 146.750 154.409  1.00  0.00     0.149 C 
ATOM      4  C   UNL     1     129.020 148.253 154.210  1.00  0.00     0.077 C 
ATOM      5  C   UNL     1     127.944 148.344 153.159  1.00  0.00     0.219 C 
ATOM      6  F   UNL     1     126.743 148.180 153.782  1.00  0.00    -0.242 F 
ENDROOT
BRANCH   1   7
ATOM      7  N   UNL     1     127.123 146.588 151.594  1.00  0.00    -0.285 N 
ATOM      8  C   UNL     1     124.197 144.671 151.536  1.00  0.00     0.155 A 
ATOM      9  N   UNL     1     124.118 144.217 152.809  1.00  0.00    -0.217 NA
ATOM     10  C   UNL     1     125.280 145.492 151.184  1.00  0.00     0.150 A 
ATOM     11  C   UNL     1     125.072 144.598 153.686  1.00  0.00     0.226 A 
ATOM     12  C   UNL     1     126.183 145.793 152.189  1.00  0.00     0.167 A 
ATOM     13  N   UNL     1     125.660 146.078 149.993  1.00  0.00    -0.231 NA
ATOM     14  N   UNL     1     126.147 145.387 153.470  1.00  0.00    -0.216 NA
ATOM     15  C   UNL     1     126.766 146.736 150.280  1.00  0.00     0.204 A 
BRANCH   8  16
ATOM     16  N   UNL     1     123.211 144.283 150.638  1.00  0.00    -0.382 N 
ATOM     17  H   UNL     1     122.477 144.973 150.527  1.00  0.00     0.158 HD
ATOM     18  H   UNL     1     123.598 143.864 149.803  1.00  0.00     0.158 HD
ENDBRANCH   8  16
ENDBRANCH   1   7
BRANCH   3  19
ATOM     19  C   UNL     1     128.160 146.187 155.441  1.00  0.00     0.188 C 
BRANCH  19  20
ATOM     20  O   UNL     1     128.705 146.332 156.752  1.00  0.00    -0.394 OA
ATOM     21  H   UNL     1     129.054 147.237 156.820  1.00  0.00     0.210 HD
ENDBRANCH  19  20
ENDBRANCH   3  19
TORSDOF 4
ENDMDL
