MODEL 1
REMARK VINA RESULT:    -6.514      0.000      0.000
REMARK INTER + INTRA:         -10.070
REMARK INTER:                  -9.180
REMARK INTRA:                  -0.890
REMARK UNBOUND:                -0.890
REMARK SMILES CCc1cnc(N2CCC(c3nc(COc4ccc(-n5cnnn5)cc4)cs3)CC2)nc1
REMARK SMILES IDX 11 1 12 2 13 3 27 4 28 5 10 6 7 7 8 8 30 9 9 10 29 11 6 12
REMARK SMILES IDX 3 13 4 14 32 15 5 16 31 17 2 18 1 19 14 20 15 21 16 22 17 23
REMARK SMILES IDX 26 24 18 25 25 26 19 27 20 28 21 29 24 30 22 31 23 32
REMARK H PARENT
ROOT
ATOM      1  C   UNL     1     133.440 135.925 151.732  1.00  0.00     0.096 A 
ATOM      2  N   UNL     1     132.722 135.952 150.625  1.00  0.00    -0.242 NA
ATOM      3  C   UNL     1     133.399 136.617 149.610  1.00  0.00     0.089 A 
ATOM      4  C   UNL     1     134.644 137.090 149.976  1.00  0.00     0.094 A 
ATOM      5  S   UNL     1     134.969 136.699 151.606  1.00  0.00    -0.127 S 
ENDROOT
BRANCH   1   6
ATOM      6  C   UNL     1     132.942 135.261 152.997  1.00  0.00     0.052 C 
ATOM      7  N   UNL     1     130.392 136.040 154.139  1.00  0.00    -0.341 N 
ATOM      8  C   UNL     1     130.377 135.218 152.929  1.00  0.00     0.120 C 
ATOM      9  C   UNL     1     131.519 136.958 154.294  1.00  0.00     0.120 C 
ATOM     10  C   UNL     1     131.675 134.424 152.806  1.00  0.00     0.032 C 
ATOM     11  C   UNL     1     132.842 136.201 154.200  1.00  0.00     0.032 C 
BRANCH   7  12
ATOM     12  C   UNL     1     129.151 136.637 154.416  1.00  0.00     0.225 A 
ATOM     13  C   UNL     1     126.714 137.809 154.910  1.00  0.00    -0.011 A 
ATOM     14  C   UNL     1     126.876 136.452 154.764  1.00  0.00     0.120 A 
ATOM     15  C   UNL     1     127.877 138.530 154.776  1.00  0.00     0.120 A 
ATOM     16  N   UNL     1     128.061 135.857 154.525  1.00  0.00    -0.221 NA
ATOM     17  N   UNL     1     129.081 137.974 154.537  1.00  0.00    -0.221 NA
BRANCH  13  18
ATOM     18  C   UNL     1     125.386 138.448 155.154  1.00  0.00     0.035 C 
ATOM     19  C   UNL     1     124.386 137.471 155.755  1.00  0.00     0.009 C 
ENDBRANCH  13  18
ENDBRANCH   7  12
ENDBRANCH   1   6
BRANCH   3  20
ATOM     20  C   UNL     1     132.730 136.745 148.273  1.00  0.00     0.286 C 
BRANCH  20  21
ATOM     21  O   UNL     1     132.066 138.005 148.124  1.00  0.00    -0.487 OA
BRANCH  21  22
ATOM     22  C   UNL     1     132.125 138.600 146.895  1.00  0.00     0.120 A 
ATOM     23  C   UNL     1     132.448 137.975 145.690  1.00  0.00     0.048 A 
ATOM     24  C   UNL     1     131.825 139.964 146.895  1.00  0.00     0.048 A 
ATOM     25  C   UNL     1     132.473 138.707 144.495  1.00  0.00     0.032 A 
ATOM     26  C   UNL     1     131.847 140.703 145.709  1.00  0.00     0.032 A 
ATOM     27  C   UNL     1     132.172 140.075 144.500  1.00  0.00     0.068 A 
BRANCH  27  28
ATOM     28  N   UNL     1     132.190 140.833 143.304  1.00  0.00    -0.201 N 
ATOM     29  C   UNL     1     131.636 142.060 143.038  1.00  0.00     0.252 A 
ATOM     30  N   UNL     1     132.810 140.408 142.178  1.00  0.00    -0.040 NA
ATOM     31  N   UNL     1     131.894 142.396 141.795  1.00  0.00    -0.117 NA
ATOM     32  N   UNL     1     132.623 141.360 141.275  1.00  0.00    -0.024 NA
ENDBRANCH  27  28
ENDBRANCH  21  22
ENDBRANCH  20  21
ENDBRANCH   3  20
TORSDOF 7
ENDMDL
