MODEL 1
REMARK VINA RESULT:    -5.578      0.000      0.000
REMARK INTER + INTRA:          -7.297
REMARK INTER:                  -6.556
REMARK INTRA:                  -0.741
REMARK UNBOUND:                -0.741
REMARK SMILES CCn1c(=O)/c(=C2\Sc3ccccc3N2C)s/c1=C/c1cccc[n+]1CC
REMARK SMILES IDX 3 1 4 2 5 3 6 4 7 5 8 6 9 7 10 8 11 9 12 10 13 11 14 12
REMARK SMILES IDX 15 13 16 14 17 15 18 16 19 17 2 18 1 19 20 20 21 21 25 22
REMARK SMILES IDX 22 23 24 24 23 25 26 26 27 27
REMARK H PARENT
ROOT
ATOM      1  N   UNL     1     133.598 137.140 151.500  1.00  0.00    -0.299 N 
ATOM      2  C   UNL     1     134.291 136.726 150.351  1.00  0.00     0.271 C 
ATOM      3  O   UNL     1     134.924 135.683 150.289  1.00  0.00    -0.268 OA
ATOM      4  C   UNL     1     134.123 137.733 149.249  1.00  0.00     0.125 C 
ATOM      5  C   UNL     1     134.775 137.757 148.061  1.00  0.00     0.103 C 
ATOM      6  S   UNL     1     136.118 136.592 147.756  1.00  0.00    -0.068 SA
ATOM      7  C   UNL     1     136.540 137.478 146.272  1.00  0.00     0.037 A 
ATOM      8  C   UNL     1     137.606 137.193 145.430  1.00  0.00     0.017 A 
ATOM      9  C   UNL     1     137.796 137.991 144.304  1.00  0.00     0.001 A 
ATOM     10  C   UNL     1     136.927 139.057 144.042  1.00  0.00     0.002 A 
ATOM     11  C   UNL     1     135.854 139.332 144.898  1.00  0.00     0.027 A 
ATOM     12  C   UNL     1     135.645 138.533 146.019  1.00  0.00     0.055 A 
ATOM     13  N   UNL     1     134.625 138.671 146.989  1.00  0.00    -0.337 N 
ATOM     14  C   UNL     1     133.417 139.381 146.597  1.00  0.00     0.151 C 
ATOM     15  S   UNL     1     133.018 138.973 149.781  1.00  0.00    -0.109 SA
ATOM     16  C   UNL     1     132.922 138.334 151.396  1.00  0.00     0.105 C 
ATOM     17  C   UNL     1     132.258 139.055 152.315  1.00  0.00     0.116 C 
ENDROOT
BRANCH   1  18
ATOM     18  C   UNL     1     133.660 136.260 152.656  1.00  0.00     0.123 C 
ATOM     19  C   UNL     1     132.595 135.174 152.620  1.00  0.00     0.028 C 
ENDBRANCH   1  18
BRANCH  17  20
ATOM     20  C   UNL     1     132.050 138.809 153.741  1.00  0.00     0.208 A 
ATOM     21  C   UNL     1     130.812 138.312 154.175  1.00  0.00     0.079 A 
ATOM     22  N   UNL     1     133.010 139.124 154.657  1.00  0.00    -0.199 N 
ATOM     23  C   UNL     1     130.583 138.099 155.527  1.00  0.00     0.013 A 
ATOM     24  C   UNL     1     132.789 138.913 155.980  1.00  0.00     0.308 A 
ATOM     25  C   UNL     1     131.583 138.397 156.436  1.00  0.00     0.071 A 
BRANCH  22  26
ATOM     26  C   UNL     1     134.321 139.709 154.257  1.00  0.00     0.354 C 
ATOM     27  C   UNL     1     135.034 140.240 155.485  1.00  0.00     0.083 C 
ENDBRANCH  22  26
ENDBRANCH  17  20
TORSDOF 3
ENDMDL
