MODEL 1
REMARK VINA RESULT:    -6.032      0.000      0.000
REMARK INTER + INTRA:          -8.992
REMARK INTER:                  -8.677
REMARK INTRA:                  -0.315
REMARK UNBOUND:                -0.315
REMARK SMILES O=C(O)C(F)(F)C(F)(F)C(F)(F)C(F)(F)C(F)(F)C(F)(F)C(F)(F)F
REMARK SMILES IDX 10 1 11 2 12 3 7 4 8 5 9 6 4 7 5 8 6 9 2 10 1 11 3 12 13 14
REMARK SMILES IDX 14 15 15 16 16 17 17 18 18 19 19 20 20 21 21 22 22 23 23 24
REMARK SMILES IDX 24 25 25 26
REMARK H PARENT 3 13
ROOT
ATOM      1  C   UNL     1     131.622 138.108 154.203  1.00  0.00     0.385 C 
ATOM      2  F   UNL     1     132.622 138.915 154.678  1.00  0.00    -0.192 F 
ATOM      3  F   UNL     1     131.201 138.710 153.055  1.00  0.00    -0.192 F 
ENDROOT
BRANCH   1   4
ATOM      4  C   UNL     1     132.238 136.754 153.883  1.00  0.00     0.389 C 
ATOM      5  F   UNL     1     131.231 135.841 153.712  1.00  0.00    -0.192 F 
ATOM      6  F   UNL     1     132.915 136.319 154.994  1.00  0.00    -0.192 F 
BRANCH   4   7
ATOM      7  C   UNL     1     133.171 136.690 152.687  1.00  0.00     0.410 C 
ATOM      8  F   UNL     1     134.264 137.479 152.898  1.00  0.00    -0.186 F 
ATOM      9  F   UNL     1     132.548 137.254 151.604  1.00  0.00    -0.186 F 
BRANCH   7  10
ATOM     10  C   UNL     1     133.538 135.244 152.394  1.00  0.00     0.381 C 
ATOM     11  O   UNL     1     132.801 134.374 151.956  1.00  0.00    -0.245 OA
BRANCH  10  12
ATOM     12  O   UNL     1     134.819 134.932 152.695  1.00  0.00    -0.477 OA
ATOM     13  H   UNL     1     135.171 134.491 151.891  1.00  0.00     0.297 HD
ENDBRANCH  10  12
ENDBRANCH   7  10
ENDBRANCH   4   7
ENDBRANCH   1   4
BRANCH   1  14
ATOM     14  C   UNL     1     130.494 138.073 155.222  1.00  0.00     0.385 C 
ATOM     15  F   UNL     1     130.666 139.061 156.138  1.00  0.00    -0.192 F 
ATOM     16  F   UNL     1     130.536 136.905 155.913  1.00  0.00    -0.192 F 
BRANCH  14  17
ATOM     17  C   UNL     1     129.138 138.213 154.550  1.00  0.00     0.387 C 
ATOM     18  F   UNL     1     128.996 137.247 153.601  1.00  0.00    -0.192 F 
ATOM     19  F   UNL     1     129.063 139.400 153.890  1.00  0.00    -0.192 F 
BRANCH  17  20
ATOM     20  C   UNL     1     128.019 138.113 155.561  1.00  0.00     0.409 C 
ATOM     21  F   UNL     1     127.999 136.875 156.130  1.00  0.00    -0.189 F 
ATOM     22  F   UNL     1     128.222 138.991 156.584  1.00  0.00    -0.189 F 
BRANCH  20  23
ATOM     23  C   UNL     1     126.692 138.396 154.887  1.00  0.00     0.460 C 
ATOM     24  F   UNL     1     125.680 138.430 155.790  1.00  0.00    -0.165 F 
ATOM     25  F   UNL     1     126.682 139.588 154.246  1.00  0.00    -0.165 F 
ATOM     26  F   UNL     1     126.367 137.450 153.976  1.00  0.00    -0.165 F 
ENDBRANCH  20  23
ENDBRANCH  17  20
ENDBRANCH  14  17
ENDBRANCH   1  14
TORSDOF 8
ENDMDL
