MODEL 1
REMARK VINA RESULT:    -6.851      0.000      0.000
REMARK INTER + INTRA:          -8.013
REMARK INTER:                  -7.652
REMARK INTRA:                  -0.361
REMARK UNBOUND:                -0.361
REMARK SMILES O=C1C[C@@H](c2ccc(O)cc2)Oc2cc(O)ccc21
REMARK SMILES IDX 1 1 2 2 3 3 4 4 12 5 13 6 14 7 15 8 17 9 18 10 19 11 5 12
REMARK SMILES IDX 6 13 11 14 7 15 10 16 8 17 9 18 16 20
REMARK H PARENT 9 19 16 21
ROOT
ATOM      1  O   UNL     1     131.803 139.095 155.654  1.00  0.00    -0.294 OA
ATOM      2  C   UNL     1     131.057 138.301 155.092  1.00  0.00     0.170 C 
ATOM      3  C   UNL     1     129.561 138.435 155.125  1.00  0.00     0.131 C 
ATOM      4  C   UNL     1     128.962 137.036 155.070  1.00  0.00     0.211 C 
ATOM      5  O   UNL     1     129.346 136.356 153.863  1.00  0.00    -0.484 OA
ATOM      6  C   UNL     1     130.704 136.288 153.698  1.00  0.00     0.134 A 
ATOM      7  C   UNL     1     131.183 135.270 152.873  1.00  0.00     0.093 A 
ATOM      8  C   UNL     1     132.555 135.147 152.672  1.00  0.00     0.119 A 
ATOM      9  C   UNL     1     133.452 136.025 153.274  1.00  0.00     0.047 A 
ATOM     10  C   UNL     1     132.973 137.056 154.084  1.00  0.00     0.019 A 
ATOM     11  C   UNL     1     131.596 137.188 154.286  1.00  0.00     0.060 A 
ENDROOT
BRANCH   4  12
ATOM     12  C   UNL     1     127.446 137.102 155.131  1.00  0.00    -0.007 A 
ATOM     13  C   UNL     1     126.664 135.937 155.088  1.00  0.00     0.011 A 
ATOM     14  C   UNL     1     126.798 138.347 155.197  1.00  0.00     0.011 A 
ATOM     15  C   UNL     1     125.270 136.015 155.121  1.00  0.00     0.046 A 
ATOM     16  C   UNL     1     125.403 138.425 155.230  1.00  0.00     0.046 A 
ATOM     17  C   UNL     1     124.652 137.256 155.192  1.00  0.00     0.115 A 
BRANCH  17  18
ATOM     18  O   UNL     1     123.289 137.286 155.221  1.00  0.00    -0.508 OA
ATOM     19  H   UNL     1     122.999 138.213 155.237  1.00  0.00     0.293 HD
ENDBRANCH  17  18
ENDBRANCH   4  12
BRANCH   8  20
ATOM     20  O   UNL     1     133.070 134.162 151.882  1.00  0.00    -0.508 OA
ATOM     21  H   UNL     1     132.812 133.299 152.246  1.00  0.00     0.293 HD
ENDBRANCH   8  20
TORSDOF 3
ENDMDL
