MODEL 1
REMARK VINA RESULT:    -6.757      0.000      0.000
REMARK INTER + INTRA:          -9.434
REMARK INTER:                  -8.732
REMARK INTRA:                  -0.702
REMARK UNBOUND:                -0.702
REMARK SMILES CN(C/C=C/C#CC(C)(C)C)Cc1cccc2ccccc12
REMARK SMILES IDX 3 1 2 2 1 3 12 4 13 5 14 6 22 7 15 8 21 9 17 10 16 11 20 12
REMARK SMILES IDX 18 13 19 14 4 15 5 16 6 17 7 18 8 19 9 20 10 21 11 22
REMARK H PARENT
ROOT
ATOM      1  C   UNL     1     133.341 135.400 153.079  1.00  0.00     0.112 C 
ENDROOT
BRANCH   1   2
ATOM      2  N   UNL     1     131.939 135.475 153.497  1.00  0.00    -0.298 NA
ATOM      3  C   UNL     1     131.112 134.433 152.892  1.00  0.00     0.106 C 
BRANCH   2   4
ATOM      4  C   UNL     1     131.377 136.824 153.313  1.00  0.00     0.120 C 
BRANCH   4   5
ATOM      5  C   UNL     1     130.841 137.450 154.592  1.00  0.00    -0.026 A 
ATOM      6  C   UNL     1     131.772 138.023 155.482  1.00  0.00     0.006 A 
ATOM      7  C   UNL     1     129.455 137.466 154.918  1.00  0.00    -0.014 A 
ATOM      8  C   UNL     1     131.356 138.600 156.676  1.00  0.00     0.001 A 
ATOM      9  C   UNL     1     128.446 136.926 154.088  1.00  0.00     0.009 A 
ATOM     10  C   UNL     1     129.048 138.055 156.143  1.00  0.00    -0.018 A 
ATOM     11  C   UNL     1     130.003 138.613 157.004  1.00  0.00     0.009 A 
ATOM     12  C   UNL     1     127.097 136.959 154.451  1.00  0.00     0.001 A 
ATOM     13  C   UNL     1     127.688 138.081 156.494  1.00  0.00     0.009 A 
ATOM     14  C   UNL     1     126.718 137.535 155.655  1.00  0.00     0.001 A 
ENDBRANCH   4   5
ENDBRANCH   2   4
ENDBRANCH   1   2
BRANCH   1  15
ATOM     15  C   UNL     1     133.614 135.727 151.638  1.00  0.00    -0.003 C 
ATOM     16  C   UNL     1     134.745 136.302 151.202  1.00  0.00     0.057 C 
ATOM     17  C   UNL     1     134.949 136.576 149.825  1.00  0.00    -0.075 C 
BRANCH  17  18
ATOM     18  C   UNL     1     135.123 136.809 148.660  1.00  0.00    -0.093 C 
ATOM     19  C   UNL     1     135.336 137.099 147.224  1.00  0.00     0.023 C 
ATOM     20  C   UNL     1     136.831 136.993 146.898  1.00  0.00     0.025 C 
ATOM     21  C   UNL     1     134.842 138.520 146.914  1.00  0.00     0.025 C 
ATOM     22  C   UNL     1     134.551 136.087 146.378  1.00  0.00     0.025 C 
ENDBRANCH  17  18
ENDBRANCH   1  15
TORSDOF 5
ENDMDL
