MODEL 1
REMARK VINA RESULT:    -3.745      0.000      0.000
REMARK INTER + INTRA:          -5.502
REMARK INTER:                  -4.840
REMARK INTRA:                  -0.662
REMARK UNBOUND:                -0.662
REMARK SMILES CSC(=N)C(C#N)C(C#N)C(=N)SC
REMARK SMILES IDX 5 1 6 2 7 3 3 4 4 5 2 7 1 8 8 9 9 10 10 11 11 12 12 13 13 15
REMARK SMILES IDX 14 16
REMARK H PARENT 4 6 12 14
ROOT
ATOM      1  C   UNL     1     134.475 137.169 150.846  1.00  0.00     0.171 C 
ATOM      2  C   UNL     1     135.835 137.243 150.286  1.00  0.00     0.074 C 
ATOM      3  N   UNL     1     136.908 137.377 149.865  1.00  0.00    -0.198 NA
ENDROOT
BRANCH   1   4
ATOM      4  C   UNL     1     134.311 136.082 151.887  1.00  0.00     0.083 C 
ATOM      5  N   UNL     1     134.961 134.967 151.811  1.00  0.00    -0.297 NA
ATOM      6  H   UNL     1     134.672 134.392 152.618  1.00  0.00     0.188 HD
BRANCH   4   7
ATOM      7  S   UNL     1     133.147 136.204 153.182  1.00  0.00    -0.114 SA
ATOM      8  C   UNL     1     132.073 134.816 152.756  1.00  0.00     0.092 C 
ENDBRANCH   4   7
ENDBRANCH   1   4
BRANCH   1   9
ATOM      9  C   UNL     1     133.390 137.045 149.762  1.00  0.00     0.171 C 
ATOM     10  C   UNL     1     133.069 138.361 149.192  1.00  0.00     0.074 C 
ATOM     11  N   UNL     1     132.797 139.404 148.764  1.00  0.00    -0.198 NA
BRANCH   9  12
ATOM     12  C   UNL     1     133.754 136.079 148.657  1.00  0.00     0.083 C 
ATOM     13  N   UNL     1     134.104 134.856 148.869  1.00  0.00    -0.297 NA
ATOM     14  H   UNL     1     134.262 134.403 147.959  1.00  0.00     0.188 HD
BRANCH  12  15
ATOM     15  S   UNL     1     133.668 136.638 147.003  1.00  0.00    -0.114 SA
ATOM     16  C   UNL     1     135.419 136.512 146.564  1.00  0.00     0.092 C 
ENDBRANCH  12  15
ENDBRANCH   9  12
ENDBRANCH   1   9
TORSDOF 5
ENDMDL
