MODEL 1
REMARK VINA RESULT:    -6.419      0.000      0.000
REMARK INTER + INTRA:          -6.607
REMARK INTER:                  -6.607
REMARK INTRA:                   0.000
REMARK UNBOUND:                 0.000
REMARK SMILES O=C1Nc2ccccc2/C1=C1/Nc2ccccc2/C1=N\O
REMARK SMILES IDX 1 1 2 2 3 3 4 4 5 5 6 6 7 7 8 8 9 9 10 10 11 11 12 12 13 13
REMARK SMILES IDX 14 14 15 15 16 16 17 17 18 18 19 19 20 20 21 23
REMARK H PARENT 3 21 12 22 21 24
ROOT
ATOM      1  O   UNL     1     132.552 134.937 151.819  1.00  0.00    -0.269 OA
ATOM      2  C   UNL     1     132.745 135.827 152.629  1.00  0.00     0.258 C 
ATOM      3  N   UNL     1     132.761 135.696 154.002  1.00  0.00    -0.321 N 
ATOM      4  C   UNL     1     132.944 136.924 154.623  1.00  0.00     0.049 A 
ATOM      5  C   UNL     1     132.971 137.135 155.989  1.00  0.00     0.027 A 
ATOM      6  C   UNL     1     133.132 138.445 156.432  1.00  0.00     0.002 A 
ATOM      7  C   UNL     1     133.250 139.495 155.508  1.00  0.00     0.001 A 
ATOM      8  C   UNL     1     133.218 139.250 154.127  1.00  0.00     0.011 A 
ATOM      9  C   UNL     1     133.076 137.951 153.675  1.00  0.00     0.013 A 
ATOM     10  C   UNL     1     132.991 137.298 152.356  1.00  0.00     0.075 C 
ATOM     11  C   UNL     1     133.081 137.683 151.070  1.00  0.00     0.082 C 
ATOM     12  N   UNL     1     132.934 136.860 149.960  1.00  0.00    -0.352 N 
ATOM     13  C   UNL     1     132.831 137.615 148.804  1.00  0.00     0.048 A 
ATOM     14  C   UNL     1     132.616 137.154 147.518  1.00  0.00     0.027 A 
ATOM     15  C   UNL     1     132.609 138.082 146.473  1.00  0.00     0.002 A 
ATOM     16  C   UNL     1     132.834 139.445 146.725  1.00  0.00     0.001 A 
ATOM     17  C   UNL     1     133.077 139.900 148.024  1.00  0.00     0.013 A 
ATOM     18  C   UNL     1     133.083 138.970 149.052  1.00  0.00     0.029 A 
ATOM     19  C   UNL     1     133.314 139.093 150.519  1.00  0.00     0.136 C 
ATOM     20  N   UNL     1     133.668 140.127 151.212  1.00  0.00    -0.087 NA
ATOM     21  H   UNL     1     132.614 134.815 154.469  1.00  0.00     0.170 HD
ATOM     22  H   UNL     1     132.553 135.925 150.074  1.00  0.00     0.167 HD
ENDROOT
BRANCH  20  23
ATOM     23  O   UNL     1     133.842 141.280 150.449  1.00  0.00    -0.410 OA
ATOM     24  H   UNL     1     132.941 141.651 150.418  1.00  0.00     0.330 HD
ENDBRANCH  20  23
TORSDOF 1
ENDMDL
