MODEL 1
REMARK VINA RESULT:    -4.982      0.000      0.000
REMARK INTER + INTRA:          -5.925
REMARK INTER:                  -5.710
REMARK INTRA:                  -0.215
REMARK UNBOUND:                -0.215
REMARK SMILES S=C(S)OC1CC2CC1C1CCCC21
REMARK SMILES IDX 1 1 2 2 3 3 4 5 5 6 6 7 9 8 7 9 8 10 10 11 14 12 11 13 13 14
REMARK SMILES IDX 12 15
REMARK H PARENT 3 4
ROOT
ATOM      1  S   UNL     1     130.662 134.381 152.866  1.00  0.00    -0.032 S 
ATOM      2  C   UNL     1     130.697 135.982 153.340  1.00  0.00     0.217 C 
ENDROOT
BRANCH   2   3
ATOM      3  S   UNL     1     132.179 136.909 153.327  1.00  0.00    -0.094 SA
ATOM      4  H   UNL     1     132.490 136.625 152.055  1.00  0.00     0.112 HD
ENDBRANCH   2   3
BRANCH   2   5
ATOM      5  O   UNL     1     129.494 136.486 153.721  1.00  0.00    -0.475 OA
BRANCH   5   6
ATOM      6  C   UNL     1     129.163 136.700 155.101  1.00  0.00     0.178 C 
ATOM      7  C   UNL     1     129.128 138.217 155.395  1.00  0.00     0.049 C 
ATOM      8  C   UNL     1     127.723 136.259 155.471  1.00  0.00     0.034 C 
ATOM      9  C   UNL     1     127.701 138.432 155.944  1.00  0.00    -0.004 C 
ATOM     10  C   UNL     1     127.488 137.125 156.708  1.00  0.00     0.011 C 
ATOM     11  C   UNL     1     126.717 136.824 154.435  1.00  0.00    -0.001 C 
ATOM     12  C   UNL     1     126.718 138.334 154.752  1.00  0.00    -0.004 C 
ATOM     13  C   UNL     1     125.269 136.350 154.591  1.00  0.00     0.004 C 
ATOM     14  C   UNL     1     125.268 138.715 155.048  1.00  0.00     0.004 C 
ATOM     15  C   UNL     1     124.535 137.425 155.376  1.00  0.00     0.001 C 
ENDBRANCH   5   6
ENDBRANCH   2   5
TORSDOF 3
ENDMDL
