MODEL 1
REMARK VINA RESULT:    -9.062      0.000      0.000
REMARK INTER + INTRA:          -9.062
REMARK INTER:                  -9.062
REMARK INTRA:                   0.000
REMARK UNBOUND:                 0.000
REMARK VINA RESULT:    -7.501      0.000      0.000
REMARK INTER + INTRA:         -12.989
REMARK INTER:                  -9.255
REMARK INTRA:                  -3.734
REMARK UNBOUND:                -3.734
REMARK SMILES C[C@@H](C(=O)Nc1ccc(Cl)cc1)[C@H]1CC[C@@H](c2ccnc3ccc(F)cc32)CC1
REMARK SMILES IDX 2 1 1 2 13 3 14 4 29 5 15 6 28 7 16 8 17 9 18 10 27 11 19 12
REMARK SMILES IDX 26 13 21 14 20 15 24 16 22 17 23 18 25 19 3 20 4 21 5 22
REMARK SMILES IDX 6 24 7 25 12 26 8 27 11 28 9 29 10 30
REMARK H PARENT 5 23
ROOT
ATOM      1  C   UNL     1     130.434 138.086 156.857  1.00  0.00     0.079 C 
ATOM      2  C   UNL     1     130.936 138.389 158.253  1.00  0.00     0.018 C 
ATOM      3  C   UNL     1     131.155 138.844 155.778  1.00  0.00     0.001 C 
ATOM      4  C   UNL     1     130.597 138.606 154.430  1.00  0.00     0.005 C 
ATOM      5  C   UNL     1     132.647 138.680 155.930  1.00  0.00     0.005 C 
ATOM      6  C   UNL     1     131.237 137.490 153.627  1.00  0.00     0.009 C 
ATOM      7  C   UNL     1     133.145 137.445 155.146  1.00  0.00     0.009 C 
ATOM      8  C   UNL     1     132.713 137.622 153.752  1.00  0.00     0.020 C 
ATOM      9  C   UNL     1     133.566 137.165 152.655  1.00  0.00    -0.034 A 
ATOM     10  C   UNL     1     133.942 135.832 152.452  1.00  0.00     0.025 A 
ATOM     11  C   UNL     1     134.066 138.043 151.682  1.00  0.00     0.007 A 
ATOM     12  C   UNL     1     134.727 135.425 151.399  1.00  0.00     0.112 A 
ATOM     13  C   UNL     1     133.808 139.395 151.722  1.00  0.00     0.049 A 
ATOM     14  C   UNL     1     134.852 137.599 150.636  1.00  0.00     0.071 A 
ATOM     15  N   UNL     1     135.184 136.303 150.489  1.00  0.00    -0.256 NA
ATOM     16  C   UNL     1     134.277 140.285 150.805  1.00  0.00     0.123 A 
ATOM     17  C   UNL     1     135.346 138.475 149.686  1.00  0.00     0.032 A 
ATOM     18  C   UNL     1     135.061 139.830 149.764  1.00  0.00     0.041 A 
ATOM     19  F   UNL     1     133.988 141.604 150.898  1.00  0.00    -0.207 F 
ATOM     20  C   UNL     1     128.971 138.286 156.855  1.00  0.00     0.227 C 
ATOM     21  O   UNL     1     128.468 139.163 157.597  1.00  0.00    -0.274 OA
ATOM     22  N   UNL     1     128.158 137.485 156.017  1.00  0.00    -0.326 N 
ATOM     23  H   UNL     1     128.671 136.778 155.433  1.00  0.00     0.169 HD
ATOM     24  C   UNL     1     126.770 137.545 155.896  1.00  0.00     0.041 A 
ATOM     25  C   UNL     1     125.866 136.599 156.297  1.00  0.00     0.027 A 
ATOM     26  C   UNL     1     126.210 138.687 155.300  1.00  0.00     0.027 A 
ATOM     27  C   UNL     1     124.484 136.754 156.131  1.00  0.00     0.022 A 
ATOM     28  C   UNL     1     124.863 138.845 155.135  1.00  0.00     0.022 A 
ATOM     29  C   UNL     1     123.970 137.879 155.546  1.00  0.00     0.041 A 
ATOM     30  Cl  UNL     1     122.270 138.128 155.312  1.00  0.00    -0.084 Cl
ENDROOT
TORSDOF 0
ENDMDL
MODEL 2
REMARK VINA RESULT:    -7.839      5.267      9.332
REMARK INTER + INTRA:          -7.839
REMARK INTER:                  -7.839
REMARK INTRA:                   0.000
REMARK UNBOUND:                 0.000
REMARK VINA RESULT:    -7.501      0.000      0.000
REMARK INTER + INTRA:         -12.989
REMARK INTER:                  -9.255
REMARK INTRA:                  -3.734
REMARK UNBOUND:                -3.734
REMARK SMILES C[C@@H](C(=O)Nc1ccc(Cl)cc1)[C@H]1CC[C@@H](c2ccnc3ccc(F)cc32)CC1
REMARK SMILES IDX 2 1 1 2 13 3 14 4 29 5 15 6 28 7 16 8 17 9 18 10 27 11 19 12
REMARK SMILES IDX 26 13 21 14 20 15 24 16 22 17 23 18 25 19 3 20 4 21 5 22
REMARK SMILES IDX 6 24 7 25 12 26 8 27 11 28 9 29 10 30
REMARK H PARENT 5 23
ROOT
ATOM      1  C   UNL     1     134.490 137.741 148.064  1.00  0.00     0.079 C 
ATOM      2  C   UNL     1     135.246 136.526 147.572  1.00  0.00     0.018 C 
ATOM      3  C   UNL     1     133.517 137.441 149.169  1.00  0.00     0.001 C 
ATOM      4  C   UNL     1     132.722 138.618 149.580  1.00  0.00     0.005 C 
ATOM      5  C   UNL     1     134.199 136.668 150.272  1.00  0.00     0.005 C 
ATOM      6  C   UNL     1     133.280 139.435 150.729  1.00  0.00     0.009 C 
ATOM      7  C   UNL     1     134.811 137.629 151.316  1.00  0.00     0.009 C 
ATOM      8  C   UNL     1     133.721 138.494 151.792  1.00  0.00     0.020 C 
ATOM      9  C   UNL     1     133.683 138.925 153.189  1.00  0.00    -0.034 A 
ATOM     10  C   UNL     1     134.672 139.703 153.801  1.00  0.00     0.025 A 
ATOM     11  C   UNL     1     132.614 138.607 154.039  1.00  0.00     0.007 A 
ATOM     12  C   UNL     1     134.601 140.114 155.111  1.00  0.00     0.112 A 
ATOM     13  C   UNL     1     131.551 137.841 153.616  1.00  0.00     0.049 A 
ATOM     14  C   UNL     1     132.575 139.038 155.352  1.00  0.00     0.071 A 
ATOM     15  N   UNL     1     133.556 139.785 155.890  1.00  0.00    -0.256 NA
ATOM     16  C   UNL     1     130.496 137.501 154.407  1.00  0.00     0.123 A 
ATOM     17  C   UNL     1     131.519 138.712 156.185  1.00  0.00     0.032 A 
ATOM     18  C   UNL     1     130.468 137.938 155.716  1.00  0.00     0.041 A 
ATOM     19  F   UNL     1     129.480 136.744 153.932  1.00  0.00    -0.207 F 
ATOM     20  C   UNL     1     133.878 138.393 146.889  1.00  0.00     0.227 C 
ATOM     21  O   UNL     1     133.505 137.691 145.919  1.00  0.00    -0.274 OA
ATOM     22  N   UNL     1     133.722 139.801 146.874  1.00  0.00    -0.326 N 
ATOM     23  H   UNL     1     134.065 140.301 147.732  1.00  0.00     0.169 HD
ATOM     24  C   UNL     1     133.169 140.568 145.849  1.00  0.00     0.041 A 
ATOM     25  C   UNL     1     133.823 141.454 145.036  1.00  0.00     0.027 A 
ATOM     26  C   UNL     1     131.792 140.442 145.603  1.00  0.00     0.027 A 
ATOM     27  C   UNL     1     133.174 142.181 144.031  1.00  0.00     0.022 A 
ATOM     28  C   UNL     1     131.152 141.147 144.624  1.00  0.00     0.022 A 
ATOM     29  C   UNL     1     131.831 142.034 143.816  1.00  0.00     0.041 A 
ATOM     30  Cl  UNL     1     130.972 142.906 142.588  1.00  0.00    -0.084 Cl
ENDROOT
TORSDOF 0
ENDMDL
