MODEL 1
REMARK VINA RESULT:    -7.501      0.000      0.000
REMARK INTER + INTRA:         -12.989
REMARK INTER:                  -9.255
REMARK INTRA:                  -3.734
REMARK UNBOUND:                -3.734
REMARK SMILES C[C@@H](C(=O)Nc1ccc(Cl)cc1)[C@H]1CC[C@@H](c2ccnc3ccc(F)cc32)CC1
REMARK SMILES IDX 2 1 1 2 13 3 14 4 29 5 15 6 28 7 16 8 17 9 18 10 27 11 19 12
REMARK SMILES IDX 26 13 21 14 20 15 24 16 22 17 23 18 25 19 3 20 4 21 5 22
REMARK SMILES IDX 6 24 7 25 12 26 8 27 11 28 9 29 10 30
REMARK H PARENT 5 23
ROOT
ATOM      1  C   UNL     1     130.407 138.069 156.823  1.00  0.00     0.079 C 
ATOM      2  C   UNL     1     130.914 138.370 158.217  1.00  0.00     0.018 C 
ENDROOT
BRANCH   1   3
ATOM      3  C   UNL     1     131.128 138.824 155.742  1.00  0.00     0.001 C 
ATOM      4  C   UNL     1     130.565 138.589 154.395  1.00  0.00     0.005 C 
ATOM      5  C   UNL     1     132.620 138.654 155.890  1.00  0.00     0.005 C 
ATOM      6  C   UNL     1     131.199 137.470 153.591  1.00  0.00     0.009 C 
ATOM      7  C   UNL     1     133.111 137.417 155.104  1.00  0.00     0.009 C 
ATOM      8  C   UNL     1     132.675 137.596 153.711  1.00  0.00     0.020 C 
BRANCH   8   9
ATOM      9  C   UNL     1     133.523 137.135 152.612  1.00  0.00    -0.034 A 
ATOM     10  C   UNL     1     133.893 135.801 152.408  1.00  0.00     0.025 A 
ATOM     11  C   UNL     1     134.024 138.011 151.638  1.00  0.00     0.007 A 
ATOM     12  C   UNL     1     134.674 135.391 151.353  1.00  0.00     0.112 A 
ATOM     13  C   UNL     1     133.772 139.364 151.678  1.00  0.00     0.049 A 
ATOM     14  C   UNL     1     134.806 137.564 150.589  1.00  0.00     0.071 A 
ATOM     15  N   UNL     1     135.132 136.267 150.441  1.00  0.00    -0.256 NA
ATOM     16  C   UNL     1     134.242 140.253 150.760  1.00  0.00     0.123 A 
ATOM     17  C   UNL     1     135.301 138.438 149.638  1.00  0.00     0.032 A 
ATOM     18  C   UNL     1     135.021 139.794 149.717  1.00  0.00     0.041 A 
ATOM     19  F   UNL     1     133.959 141.573 150.854  1.00  0.00    -0.207 F 
ENDBRANCH   8   9
ENDBRANCH   1   3
BRANCH   1  20
ATOM     20  C   UNL     1     128.945 138.276 156.825  1.00  0.00     0.227 C 
ATOM     21  O   UNL     1     128.448 139.155 157.568  1.00  0.00    -0.274 OA
ATOM     22  N   UNL     1     128.126 137.478 155.989  1.00  0.00    -0.326 N 
ATOM     23  H   UNL     1     128.635 136.769 155.404  1.00  0.00     0.169 HD
BRANCH  22  24
ATOM     24  C   UNL     1     126.738 137.544 155.872  1.00  0.00     0.041 A 
ATOM     25  C   UNL     1     125.831 136.602 156.276  1.00  0.00     0.027 A 
ATOM     26  C   UNL     1     126.181 138.688 155.278  1.00  0.00     0.027 A 
ATOM     27  C   UNL     1     124.450 136.762 156.113  1.00  0.00     0.022 A 
ATOM     28  C   UNL     1     124.835 138.852 155.116  1.00  0.00     0.022 A 
ATOM     29  C   UNL     1     123.939 137.890 155.530  1.00  0.00     0.041 A 
ATOM     30  Cl  UNL     1     122.239 138.146 155.301  1.00  0.00    -0.084 Cl
ENDBRANCH  22  24
ENDBRANCH   1  20
TORSDOF 4
BEGIN_RES TRP A 730
REMARK INDEX MAP 3 1 15 2 18 3 19 4 20 5 22 6 23 7 24 8 25 9 26 10 28 11 29 12
ROOT
ATOM      1  CA  TRP A 730     136.788 143.190 159.307  1.00  0.00     0.175 C 
ENDROOT
BRANCH   1   2
ATOM      2  CB  TRP A 730     137.344 142.010 158.513  1.00  0.00     0.072 C 
BRANCH   2   3
ATOM      3  CG  TRP A 730     136.404 140.858 158.418  1.00  0.00    -0.020 A 
ATOM      4 CD1  TRP A 730     135.482 140.631 157.442  1.00  0.00     0.087 A 
ATOM      5 CD2  TRP A 730     136.293 139.764 159.334  1.00  0.00     0.003 A 
ATOM      6 NE1  TRP A 730     134.802 139.467 157.693  1.00  0.00    -0.359 N 
ATOM      7 CE2  TRP A 730     135.283 138.914 158.851  1.00  0.00     0.046 A 
ATOM      8 CE3  TRP A 730     136.951 139.423 160.519  1.00  0.00     0.010 A 
ATOM      9 HE1  TRP A 730     134.053 139.073 157.107  1.00  0.00     0.166 HD
ATOM     10 CZ2  TRP A 730     134.913 137.746 159.507  1.00  0.00     0.026 A 
ATOM     11 CZ3  TRP A 730     136.583 138.262 161.169  1.00  0.00     0.001 A 
ATOM     12 CH2  TRP A 730     135.573 137.439 160.662  1.00  0.00     0.002 A 
ENDBRANCH   2   3
ENDBRANCH   1   2
END_RES TRP A 730
ENDMDL
MODEL 2
REMARK VINA RESULT:    -7.331      3.994      8.304
REMARK INTER + INTRA:         -12.779
REMARK INTER:                  -8.916
REMARK INTRA:                  -3.863
REMARK UNBOUND:                -3.734
REMARK SMILES C[C@@H](C(=O)Nc1ccc(Cl)cc1)[C@H]1CC[C@@H](c2ccnc3ccc(F)cc32)CC1
REMARK SMILES IDX 2 1 1 2 13 3 14 4 29 5 15 6 28 7 16 8 17 9 18 10 27 11 19 12
REMARK SMILES IDX 26 13 21 14 20 15 24 16 22 17 23 18 25 19 3 20 4 21 5 22
REMARK SMILES IDX 6 24 7 25 12 26 8 27 11 28 9 29 10 30
REMARK H PARENT 5 23
ROOT
ATOM      1  C   UNL     1     134.540 137.191 151.695  1.00  0.00     0.079 C 
ATOM      2  C   UNL     1     134.948 135.734 151.698  1.00  0.00     0.018 C 
ENDROOT
BRANCH   1   3
ATOM      3  C   UNL     1     133.067 137.405 151.898  1.00  0.00     0.001 C 
ATOM      4  C   UNL     1     132.741 138.756 152.403  1.00  0.00     0.005 C 
ATOM      5  C   UNL     1     132.466 136.241 152.645  1.00  0.00     0.005 C 
ATOM      6  C   UNL     1     132.644 138.900 153.910  1.00  0.00     0.009 C 
ATOM      7  C   UNL     1     132.528 136.478 154.172  1.00  0.00     0.009 C 
ATOM      8  C   UNL     1     131.850 137.757 154.432  1.00  0.00     0.020 C 
BRANCH   8   9
ATOM      9  C   UNL     1     131.059 137.933 155.649  1.00  0.00    -0.034 A 
ATOM     10  C   UNL     1     131.600 138.232 156.905  1.00  0.00     0.025 A 
ATOM     11  C   UNL     1     129.659 137.839 155.651  1.00  0.00     0.007 A 
ATOM     12  C   UNL     1     130.831 138.414 158.030  1.00  0.00     0.112 A 
ATOM     13  C   UNL     1     128.949 137.543 154.508  1.00  0.00     0.049 A 
ATOM     14  C   UNL     1     128.917 138.029 156.801  1.00  0.00     0.071 A 
ATOM     15  N   UNL     1     129.490 138.315 157.984  1.00  0.00    -0.256 NA
ATOM     16  C   UNL     1     127.593 137.434 154.461  1.00  0.00     0.123 A 
ATOM     17  C   UNL     1     127.537 137.926 156.791  1.00  0.00     0.032 A 
ATOM     18  C   UNL     1     126.863 137.627 155.617  1.00  0.00     0.041 A 
ATOM     19  F   UNL     1     126.953 137.141 153.305  1.00  0.00    -0.207 F 
ENDBRANCH   8   9
ENDBRANCH   1   3
BRANCH   1  20
ATOM     20  C   UNL     1     135.069 137.799 150.458  1.00  0.00     0.227 C 
ATOM     21  O   UNL     1     135.714 138.873 150.526  1.00  0.00    -0.274 OA
ATOM     22  N   UNL     1     134.841 137.163 149.213  1.00  0.00    -0.326 N 
ATOM     23  H   UNL     1     134.290 136.270 149.259  1.00  0.00     0.169 HD
BRANCH  22  24
ATOM     24  C   UNL     1     135.269 137.601 147.961  1.00  0.00     0.041 A 
ATOM     25  C   UNL     1     136.445 137.288 147.335  1.00  0.00     0.027 A 
ATOM     26  C   UNL     1     134.423 138.459 147.239  1.00  0.00     0.027 A 
ATOM     27  C   UNL     1     136.785 137.782 146.070  1.00  0.00     0.022 A 
ATOM     28  C   UNL     1     134.746 138.944 146.004  1.00  0.00     0.022 A 
ATOM     29  C   UNL     1     135.937 138.616 145.393  1.00  0.00     0.041 A 
ATOM     30  Cl  UNL     1     136.301 139.260 143.823  1.00  0.00    -0.084 Cl
ENDBRANCH  22  24
ENDBRANCH   1  20
TORSDOF 4
BEGIN_RES TRP A 730
REMARK INDEX MAP 3 1 15 2 18 3 19 4 20 5 22 6 23 7 24 8 25 9 26 10 28 11 29 12
ROOT
ATOM      1  CA  TRP A 730     136.788 143.190 159.307  1.00  0.00     0.175 C 
ENDROOT
BRANCH   1   2
ATOM      2  CB  TRP A 730     137.344 142.010 158.513  1.00  0.00     0.072 C 
BRANCH   2   3
ATOM      3  CG  TRP A 730     136.365 140.902 158.326  1.00  0.00    -0.020 A 
ATOM      4 CD1  TRP A 730     135.513 140.731 157.279  1.00  0.00     0.087 A 
ATOM      5 CD2  TRP A 730     136.138 139.800 159.211  1.00  0.00     0.003 A 
ATOM      6 NE1  TRP A 730     134.766 139.594 157.456  1.00  0.00    -0.359 N 
ATOM      7 CE2  TRP A 730     135.133 139.003 158.637  1.00  0.00     0.046 A 
ATOM      8 CE3  TRP A 730     136.687 139.413 160.436  1.00  0.00     0.010 A 
ATOM      9 HE1  TRP A 730     134.048 139.241 156.808  1.00  0.00     0.166 HD
ATOM     10 CZ2  TRP A 730     134.664 137.843 159.242  1.00  0.00     0.026 A 
ATOM     11 CZ3  TRP A 730     136.222 138.260 161.035  1.00  0.00     0.001 A 
ATOM     12 CH2  TRP A 730     135.219 137.490 160.438  1.00  0.00     0.002 A 
ENDBRANCH   2   3
ENDBRANCH   1   2
END_RES TRP A 730
ENDMDL
MODEL 3
REMARK VINA RESULT:    -7.273      2.550      3.984
REMARK INTER + INTRA:         -12.708
REMARK INTER:                  -8.742
REMARK INTRA:                  -3.966
REMARK UNBOUND:                -3.734
REMARK SMILES C[C@@H](C(=O)Nc1ccc(Cl)cc1)[C@H]1CC[C@@H](c2ccnc3ccc(F)cc32)CC1
REMARK SMILES IDX 2 1 1 2 13 3 14 4 29 5 15 6 28 7 16 8 17 9 18 10 27 11 19 12
REMARK SMILES IDX 26 13 21 14 20 15 24 16 22 17 23 18 25 19 3 20 4 21 5 22
REMARK SMILES IDX 6 24 7 25 12 26 8 27 11 28 9 29 10 30
REMARK H PARENT 5 23
ROOT
ATOM      1  C   UNL     1     133.697 138.658 153.526  1.00  0.00     0.079 C 
ATOM      2  C   UNL     1     134.398 139.696 154.375  1.00  0.00     0.018 C 
ENDROOT
BRANCH   1   3
ATOM      3  C   UNL     1     133.266 139.169 152.181  1.00  0.00     0.001 C 
ATOM      4  C   UNL     1     132.709 138.112 151.309  1.00  0.00     0.005 C 
ATOM      5  C   UNL     1     134.343 140.040 151.582  1.00  0.00     0.005 C 
ATOM      6  C   UNL     1     133.691 137.427 150.378  1.00  0.00     0.009 C 
ATOM      7  C   UNL     1     135.330 139.194 150.745  1.00  0.00     0.009 C 
ATOM      8  C   UNL     1     134.531 138.475 149.741  1.00  0.00     0.020 C 
BRANCH   8   9
ATOM      9  C   UNL     1     135.071 138.243 148.403  1.00  0.00    -0.034 A 
ATOM     10  C   UNL     1     136.109 137.348 148.115  1.00  0.00     0.025 A 
ATOM     11  C   UNL     1     134.564 138.895 147.269  1.00  0.00     0.007 A 
ATOM     12  C   UNL     1     136.583 137.132 146.843  1.00  0.00     0.112 A 
ATOM     13  C   UNL     1     133.546 139.819 147.356  1.00  0.00     0.049 A 
ATOM     14  C   UNL     1     135.065 138.653 146.004  1.00  0.00     0.071 A 
ATOM     15  N   UNL     1     136.065 137.780 145.784  1.00  0.00    -0.256 NA
ATOM     16  C   UNL     1     133.027 140.482 146.287  1.00  0.00     0.123 A 
ATOM     17  C   UNL     1     134.561 139.308 144.894  1.00  0.00     0.032 A 
ATOM     18  C   UNL     1     133.535 140.231 145.029  1.00  0.00     0.041 A 
ATOM     19  F   UNL     1     132.024 141.378 146.438  1.00  0.00    -0.207 F 
ENDBRANCH   8   9
ENDBRANCH   1   3
BRANCH   1  20
ATOM     20  C   UNL     1     132.597 138.091 154.332  1.00  0.00     0.227 C 
ATOM     21  O   UNL     1     132.806 137.070 155.029  1.00  0.00    -0.274 OA
ATOM     22  N   UNL     1     131.322 138.709 154.306  1.00  0.00    -0.326 N 
ATOM     23  H   UNL     1     131.247 139.558 153.691  1.00  0.00     0.169 HD
BRANCH  22  24
ATOM     24  C   UNL     1     130.184 138.305 155.002  1.00  0.00     0.041 A 
ATOM     25  C   UNL     1     129.873 138.585 156.306  1.00  0.00     0.027 A 
ATOM     26  C   UNL     1     129.237 137.525 154.320  1.00  0.00     0.027 A 
ATOM     27  C   UNL     1     128.699 138.130 156.917  1.00  0.00     0.022 A 
ATOM     28  C   UNL     1     128.089 137.078 154.909  1.00  0.00     0.022 A 
ATOM     29  C   UNL     1     127.795 137.372 156.224  1.00  0.00     0.041 A 
ATOM     30  Cl  UNL     1     126.323 136.780 156.926  1.00  0.00    -0.084 Cl
ENDBRANCH  22  24
ENDBRANCH   1  20
TORSDOF 4
BEGIN_RES TRP A 730
REMARK INDEX MAP 3 1 15 2 18 3 19 4 20 5 22 6 23 7 24 8 25 9 26 10 28 11 29 12
ROOT
ATOM      1  CA  TRP A 730     136.788 143.190 159.307  1.00  0.00     0.175 C 
ENDROOT
BRANCH   1   2
ATOM      2  CB  TRP A 730     137.344 142.010 158.513  1.00  0.00     0.072 C 
BRANCH   2   3
ATOM      3  CG  TRP A 730     136.425 140.838 158.462  1.00  0.00    -0.020 A 
ATOM      4 CD1  TRP A 730     135.471 140.586 157.524  1.00  0.00     0.087 A 
ATOM      5 CD2  TRP A 730     136.372 139.749 159.389  1.00  0.00     0.003 A 
ATOM      6 NE1  TRP A 730     134.826 139.410 157.809  1.00  0.00    -0.359 N 
ATOM      7 CE2  TRP A 730     135.362 138.876 158.950  1.00  0.00     0.046 A 
ATOM      8 CE3  TRP A 730     137.082 139.430 160.549  1.00  0.00     0.010 A 
ATOM      9 HE1  TRP A 730     134.063 138.996 157.255  1.00  0.00     0.166 HD
ATOM     10 CZ2  TRP A 730     135.042 137.705 159.628  1.00  0.00     0.026 A 
ATOM     11 CZ3  TRP A 730     136.763 138.267 161.220  1.00  0.00     0.001 A 
ATOM     12 CH2  TRP A 730     135.752 137.419 160.759  1.00  0.00     0.002 A 
ENDBRANCH   2   3
ENDBRANCH   1   2
END_RES TRP A 730
ENDMDL
MODEL 4
REMARK VINA RESULT:    -6.918      4.576      8.276
REMARK INTER + INTRA:         -12.269
REMARK INTER:                  -9.354
REMARK INTRA:                  -2.915
REMARK UNBOUND:                -3.734
REMARK SMILES C[C@@H](C(=O)Nc1ccc(Cl)cc1)[C@H]1CC[C@@H](c2ccnc3ccc(F)cc32)CC1
REMARK SMILES IDX 2 1 1 2 13 3 14 4 29 5 15 6 28 7 16 8 17 9 18 10 27 11 19 12
REMARK SMILES IDX 26 13 21 14 20 15 24 16 22 17 23 18 25 19 3 20 4 21 5 22
REMARK SMILES IDX 6 24 7 25 12 26 8 27 11 28 9 29 10 30
REMARK H PARENT 5 23
ROOT
ATOM      1  C   UNL     1     134.807 138.387 148.343  1.00  0.00     0.079 C 
ATOM      2  C   UNL     1     135.885 137.388 147.980  1.00  0.00     0.018 C 
ENDROOT
BRANCH   1   3
ATOM      3  C   UNL     1     133.852 137.890 149.391  1.00  0.00     0.001 C 
ATOM      4  C   UNL     1     132.914 138.931 149.862  1.00  0.00     0.005 C 
ATOM      5  C   UNL     1     134.595 137.119 150.454  1.00  0.00     0.005 C 
ATOM      6  C   UNL     1     133.345 139.716 151.086  1.00  0.00     0.009 C 
ATOM      7  C   UNL     1     135.065 138.061 151.587  1.00  0.00     0.009 C 
ATOM      8  C   UNL     1     133.868 138.753 152.090  1.00  0.00     0.020 C 
BRANCH   8   9
ATOM      9  C   UNL     1     133.747 139.067 153.513  1.00  0.00    -0.034 A 
ATOM     10  C   UNL     1     134.721 139.743 154.257  1.00  0.00     0.025 A 
ATOM     11  C   UNL     1     132.607 138.731 154.257  1.00  0.00     0.007 A 
ATOM     12  C   UNL     1     134.572 140.046 155.590  1.00  0.00     0.112 A 
ATOM     13  C   UNL     1     131.546 138.055 153.697  1.00  0.00     0.049 A 
ATOM     14  C   UNL     1     132.490 139.052 155.597  1.00  0.00     0.071 A 
ATOM     15  N   UNL     1     133.460 139.704 156.264  1.00  0.00    -0.256 NA
ATOM     16  C   UNL     1     130.423 137.701 154.380  1.00  0.00     0.123 A 
ATOM     17  C   UNL     1     131.363 138.708 156.323  1.00  0.00     0.032 A 
ATOM     18  C   UNL     1     130.318 138.028 155.717  1.00  0.00     0.041 A 
ATOM     19  F   UNL     1     129.413 137.037 153.772  1.00  0.00    -0.207 F 
ENDBRANCH   8   9
ENDBRANCH   1   3
BRANCH   1  20
ATOM     20  C   UNL     1     134.154 138.814 147.090  1.00  0.00     0.227 C 
ATOM     21  O   UNL     1     133.880 137.958 146.215  1.00  0.00    -0.274 OA
ATOM     22  N   UNL     1     133.845 140.182 146.894  1.00  0.00    -0.326 N 
ATOM     23  H   UNL     1     134.114 140.821 147.684  1.00  0.00     0.169 HD
BRANCH  22  24
ATOM     24  C   UNL     1     133.233 140.748 145.777  1.00  0.00     0.041 A 
ATOM     25  C   UNL     1     133.791 140.944 144.542  1.00  0.00     0.027 A 
ATOM     26  C   UNL     1     131.902 141.175 145.901  1.00  0.00     0.027 A 
ATOM     27  C   UNL     1     133.090 141.524 143.479  1.00  0.00     0.022 A 
ATOM     28  C   UNL     1     131.210 141.742 144.868  1.00  0.00     0.022 A 
ATOM     29  C   UNL     1     131.792 141.929 143.633  1.00  0.00     0.041 A 
ATOM     30  Cl  UNL     1     130.871 142.654 142.353  1.00  0.00    -0.084 Cl
ENDBRANCH  22  24
ENDBRANCH   1  20
TORSDOF 4
BEGIN_RES TRP A 730
REMARK INDEX MAP 3 1 15 2 18 3 19 4 20 5 22 6 23 7 24 8 25 9 26 10 28 11 29 12
ROOT
ATOM      1  CA  TRP A 730     136.788 143.190 159.307  1.00  0.00     0.175 C 
ENDROOT
BRANCH   1   2
ATOM      2  CB  TRP A 730     137.344 142.010 158.513  1.00  0.00     0.072 C 
BRANCH   2   3
ATOM      3  CG  TRP A 730     137.549 140.782 159.332  1.00  0.00    -0.020 A 
ATOM      4 CD1  TRP A 730     138.703 140.383 159.934  1.00  0.00     0.087 A 
ATOM      5 CD2  TRP A 730     136.569 139.789 159.648  1.00  0.00     0.003 A 
ATOM      6 NE1  TRP A 730     138.505 139.202 160.603  1.00  0.00    -0.359 N 
ATOM      7 CE2  TRP A 730     137.201 138.816 160.443  1.00  0.00     0.046 A 
ATOM      8 CE3  TRP A 730     135.218 139.627 159.333  1.00  0.00     0.010 A 
ATOM      9 HE1  TRP A 730     139.220 138.690 161.138  1.00  0.00     0.166 HD
ATOM     10 CZ2  TRP A 730     136.531 137.699 160.928  1.00  0.00     0.026 A 
ATOM     11 CZ3  TRP A 730     134.554 138.517 159.816  1.00  0.00     0.001 A 
ATOM     12 CH2  TRP A 730     135.211 137.568 160.604  1.00  0.00     0.002 A 
ENDBRANCH   2   3
ENDBRANCH   1   2
END_RES TRP A 730
ENDMDL
MODEL 5
REMARK VINA RESULT:    -6.837      3.416      5.542
REMARK INTER + INTRA:         -12.170
REMARK INTER:                  -8.237
REMARK INTRA:                  -3.933
REMARK UNBOUND:                -3.734
REMARK SMILES C[C@@H](C(=O)Nc1ccc(Cl)cc1)[C@H]1CC[C@@H](c2ccnc3ccc(F)cc32)CC1
REMARK SMILES IDX 2 1 1 2 13 3 14 4 29 5 15 6 28 7 16 8 17 9 18 10 27 11 19 12
REMARK SMILES IDX 26 13 21 14 20 15 24 16 22 17 23 18 25 19 3 20 4 21 5 22
REMARK SMILES IDX 6 24 7 25 12 26 8 27 11 28 9 29 10 30
REMARK H PARENT 5 23
ROOT
ATOM      1  C   UNL     1     133.739 135.832 151.316  1.00  0.00     0.079 C 
ATOM      2  C   UNL     1     134.913 135.923 152.268  1.00  0.00     0.018 C 
ENDROOT
BRANCH   1   3
ATOM      3  C   UNL     1     133.676 136.961 150.327  1.00  0.00     0.001 C 
ATOM      4  C   UNL     1     133.185 136.540 148.997  1.00  0.00     0.005 C 
ATOM      5  C   UNL     1     134.960 137.753 150.353  1.00  0.00     0.005 C 
ATOM      6  C   UNL     1     134.245 136.140 147.988  1.00  0.00     0.009 C 
ATOM      7  C   UNL     1     135.984 137.170 149.352  1.00  0.00     0.009 C 
ATOM      8  C   UNL     1     135.331 137.154 148.034  1.00  0.00     0.020 C 
BRANCH   8   9
ATOM      9  C   UNL     1     136.109 137.422 146.826  1.00  0.00    -0.034 A 
ATOM     10  C   UNL     1     137.303 136.769 146.495  1.00  0.00     0.025 A 
ATOM     11  C   UNL     1     135.700 138.360 145.867  1.00  0.00     0.007 A 
ATOM     12  C   UNL     1     138.004 137.025 145.341  1.00  0.00     0.112 A 
ATOM     13  C   UNL     1     134.554 139.108 146.024  1.00  0.00     0.049 A 
ATOM     14  C   UNL     1     136.429 138.592 144.715  1.00  0.00     0.071 A 
ATOM     15  N   UNL     1     137.572 137.934 144.447  1.00  0.00    -0.256 NA
ATOM     16  C   UNL     1     134.120 140.033 145.125  1.00  0.00     0.123 A 
ATOM     17  C   UNL     1     136.019 139.525 143.780  1.00  0.00     0.032 A 
ATOM     18  C   UNL     1     134.857 140.255 143.979  1.00  0.00     0.041 A 
ATOM     19  F   UNL     1     132.983 140.736 145.337  1.00  0.00    -0.207 F 
ENDBRANCH   8   9
ENDBRANCH   1   3
BRANCH   1  20
ATOM     20  C   UNL     1     132.516 135.679 152.129  1.00  0.00     0.227 C 
ATOM     21  O   UNL     1     131.995 134.546 152.251  1.00  0.00    -0.274 OA
ATOM     22  N   UNL     1     131.950 136.814 152.760  1.00  0.00    -0.326 N 
ATOM     23  H   UNL     1     132.459 137.719 152.598  1.00  0.00     0.169 HD
BRANCH  22  24
ATOM     24  C   UNL     1     130.806 136.844 153.556  1.00  0.00     0.041 A 
ATOM     25  C   UNL     1     129.886 135.843 153.714  1.00  0.00     0.027 A 
ATOM     26  C   UNL     1     130.543 138.012 154.287  1.00  0.00     0.027 A 
ATOM     27  C   UNL     1     128.764 135.970 154.541  1.00  0.00     0.022 A 
ATOM     28  C   UNL     1     129.451 138.145 155.097  1.00  0.00     0.022 A 
ATOM     29  C   UNL     1     128.536 137.123 155.241  1.00  0.00     0.041 A 
ATOM     30  Cl  UNL     1     127.165 137.341 156.281  1.00  0.00    -0.084 Cl
ENDBRANCH  22  24
ENDBRANCH   1  20
TORSDOF 4
BEGIN_RES TRP A 730
REMARK INDEX MAP 3 1 15 2 18 3 19 4 20 5 22 6 23 7 24 8 25 9 26 10 28 11 29 12
ROOT
ATOM      1  CA  TRP A 730     136.788 143.190 159.307  1.00  0.00     0.175 C 
ENDROOT
BRANCH   1   2
ATOM      2  CB  TRP A 730     137.344 142.010 158.513  1.00  0.00     0.072 C 
BRANCH   2   3
ATOM      3  CG  TRP A 730     136.455 140.814 158.519  1.00  0.00    -0.020 A 
ATOM      4 CD1  TRP A 730     136.250 139.952 159.554  1.00  0.00     0.087 A 
ATOM      5 CD2  TRP A 730     135.642 140.344 157.440  1.00  0.00     0.003 A 
ATOM      6 NE1  TRP A 730     135.362 138.974 159.186  1.00  0.00    -0.359 N 
ATOM      7 CE2  TRP A 730     134.973 139.193 157.891  1.00  0.00     0.046 A 
ATOM      8 CE3  TRP A 730     135.418 140.785 156.134  1.00  0.00     0.010 A 
ATOM      9 HE1  TRP A 730     135.040 138.201 159.785  1.00  0.00     0.166 HD
ATOM     10 CZ2  TRP A 730     134.096 138.476 157.085  1.00  0.00     0.026 A 
ATOM     11 CZ3  TRP A 730     134.545 140.073 155.336  1.00  0.00     0.001 A 
ATOM     12 CH2  TRP A 730     133.896 138.931 155.814  1.00  0.00     0.002 A 
ENDBRANCH   2   3
ENDBRANCH   1   2
END_RES TRP A 730
ENDMDL
MODEL 6
REMARK VINA RESULT:    -6.722      2.421      3.939
REMARK INTER + INTRA:         -12.028
REMARK INTER:                  -9.433
REMARK INTRA:                  -2.595
REMARK UNBOUND:                -3.734
REMARK SMILES C[C@@H](C(=O)Nc1ccc(Cl)cc1)[C@H]1CC[C@@H](c2ccnc3ccc(F)cc32)CC1
REMARK SMILES IDX 2 1 1 2 13 3 14 4 29 5 15 6 28 7 16 8 17 9 18 10 27 11 19 12
REMARK SMILES IDX 26 13 21 14 20 15 24 16 22 17 23 18 25 19 3 20 4 21 5 22
REMARK SMILES IDX 6 24 7 25 12 26 8 27 11 28 9 29 10 30
REMARK H PARENT 5 23
ROOT
ATOM      1  C   UNL     1     132.233 136.810 153.028  1.00  0.00     0.079 C 
ATOM      2  C   UNL     1     132.832 135.869 154.051  1.00  0.00     0.018 C 
ENDROOT
BRANCH   1   3
ATOM      3  C   UNL     1     133.213 137.809 152.481  1.00  0.00     0.001 C 
ATOM      4  C   UNL     1     132.651 138.636 151.392  1.00  0.00     0.005 C 
ATOM      5  C   UNL     1     134.541 137.147 152.211  1.00  0.00     0.005 C 
ATOM      6  C   UNL     1     132.875 138.125 149.981  1.00  0.00     0.009 C 
ATOM      7  C   UNL     1     134.589 136.581 150.772  1.00  0.00     0.009 C 
ATOM      8  C   UNL     1     134.294 137.700 149.864  1.00  0.00     0.020 C 
BRANCH   8   9
ATOM      9  C   UNL     1     134.962 137.787 148.566  1.00  0.00    -0.034 A 
ATOM     10  C   UNL     1     136.116 137.073 148.224  1.00  0.00     0.025 A 
ATOM     11  C   UNL     1     134.472 138.592 147.527  1.00  0.00     0.007 A 
ATOM     12  C   UNL     1     136.711 137.155 146.987  1.00  0.00     0.112 A 
ATOM     13  C   UNL     1     133.349 139.374 147.680  1.00  0.00     0.049 A 
ATOM     14  C   UNL     1     135.096 138.650 146.294  1.00  0.00     0.071 A 
ATOM     15  N   UNL     1     136.206 137.941 146.019  1.00  0.00    -0.256 NA
ATOM     16  C   UNL     1     132.842 140.176 146.704  1.00  0.00     0.123 A 
ATOM     17  C   UNL     1     134.608 139.454 145.279  1.00  0.00     0.032 A 
ATOM     18  C   UNL     1     133.473 140.225 145.478  1.00  0.00     0.041 A 
ATOM     19  F   UNL     1     131.732 140.922 146.917  1.00  0.00    -0.207 F 
ENDBRANCH   8   9
ENDBRANCH   1   3
BRANCH   1  20
ATOM     20  C   UNL     1     131.031 137.418 153.632  1.00  0.00     0.227 C 
ATOM     21  O   UNL     1     131.061 138.620 153.989  1.00  0.00    -0.274 OA
ATOM     22  N   UNL     1     129.861 136.637 153.799  1.00  0.00    -0.326 N 
ATOM     23  H   UNL     1     129.935 135.642 153.470  1.00  0.00     0.169 HD
BRANCH  22  24
ATOM     24  C   UNL     1     128.650 137.054 154.348  1.00  0.00     0.041 A 
ATOM     25  C   UNL     1     128.277 138.337 154.643  1.00  0.00     0.027 A 
ATOM     26  C   UNL     1     127.688 136.074 154.641  1.00  0.00     0.027 A 
ATOM     27  C   UNL     1     127.031 138.655 155.195  1.00  0.00     0.022 A 
ATOM     28  C   UNL     1     126.470 136.376 155.179  1.00  0.00     0.022 A 
ATOM     29  C   UNL     1     126.115 137.676 155.469  1.00  0.00     0.041 A 
ATOM     30  Cl  UNL     1     124.555 138.007 156.153  1.00  0.00    -0.084 Cl
ENDBRANCH  22  24
ENDBRANCH   1  20
TORSDOF 4
BEGIN_RES TRP A 730
REMARK INDEX MAP 3 1 15 2 18 3 19 4 20 5 22 6 23 7 24 8 25 9 26 10 28 11 29 12
ROOT
ATOM      1  CA  TRP A 730     136.788 143.190 159.307  1.00  0.00     0.175 C 
ENDROOT
BRANCH   1   2
ATOM      2  CB  TRP A 730     137.344 142.010 158.513  1.00  0.00     0.072 C 
BRANCH   2   3
ATOM      3  CG  TRP A 730     136.479 140.797 158.560  1.00  0.00    -0.020 A 
ATOM      4 CD1  TRP A 730     136.339 139.932 159.602  1.00  0.00     0.087 A 
ATOM      5 CD2  TRP A 730     135.625 140.313 157.520  1.00  0.00     0.003 A 
ATOM      6 NE1  TRP A 730     135.453 138.937 159.276  1.00  0.00    -0.359 N 
ATOM      7 CE2  TRP A 730     134.999 139.149 158.001  1.00  0.00     0.046 A 
ATOM      8 CE3  TRP A 730     135.330 140.750 156.226  1.00  0.00     0.010 A 
ATOM      9 HE1  TRP A 730     135.174 138.158 159.889  1.00  0.00     0.166 HD
ATOM     10 CZ2  TRP A 730     134.098 138.416 157.237  1.00  0.00     0.026 A 
ATOM     11 CZ3  TRP A 730     134.434 140.022 155.470  1.00  0.00     0.001 A 
ATOM     12 CH2  TRP A 730     133.830 138.868 155.977  1.00  0.00     0.002 A 
ENDBRANCH   2   3
ENDBRANCH   1   2
END_RES TRP A 730
ENDMDL
MODEL 7
REMARK VINA RESULT:    -6.663      3.643      5.703
REMARK INTER + INTRA:         -11.955
REMARK INTER:                  -8.484
REMARK INTRA:                  -3.471
REMARK UNBOUND:                -3.734
REMARK SMILES C[C@@H](C(=O)Nc1ccc(Cl)cc1)[C@H]1CC[C@@H](c2ccnc3ccc(F)cc32)CC1
REMARK SMILES IDX 2 1 1 2 13 3 14 4 29 5 15 6 28 7 16 8 17 9 18 10 27 11 19 12
REMARK SMILES IDX 26 13 21 14 20 15 24 16 22 17 23 18 25 19 3 20 4 21 5 22
REMARK SMILES IDX 6 24 7 25 12 26 8 27 11 28 9 29 10 30
REMARK H PARENT 5 23
ROOT
ATOM      1  C   UNL     1     134.123 137.995 152.108  1.00  0.00     0.079 C 
ATOM      2  C   UNL     1     134.670 139.329 151.646  1.00  0.00     0.018 C 
ENDROOT
BRANCH   1   3
ATOM      3  C   UNL     1     134.317 136.886 151.114  1.00  0.00     0.001 C 
ATOM      4  C   UNL     1     135.699 136.808 150.594  1.00  0.00     0.005 C 
ATOM      5  C   UNL     1     133.210 136.900 150.090  1.00  0.00     0.005 C 
ATOM      6  C   UNL     1     135.976 137.572 149.313  1.00  0.00     0.009 C 
ATOM      7  C   UNL     1     133.585 137.800 148.889  1.00  0.00     0.009 C 
ATOM      8  C   UNL     1     134.864 137.299 148.364  1.00  0.00     0.020 C 
BRANCH   8   9
ATOM      9  C   UNL     1     135.129 137.327 146.926  1.00  0.00    -0.034 A 
ATOM     10  C   UNL     1     135.843 138.340 146.276  1.00  0.00     0.025 A 
ATOM     11  C   UNL     1     134.699 136.304 146.068  1.00  0.00     0.007 A 
ATOM     12  C   UNL     1     136.097 138.331 144.924  1.00  0.00     0.112 A 
ATOM     13  C   UNL     1     133.973 135.227 146.526  1.00  0.00     0.049 A 
ATOM     14  C   UNL     1     134.973 136.327 144.713  1.00  0.00     0.071 A 
ATOM     15  N   UNL     1     135.665 137.327 144.139  1.00  0.00    -0.256 NA
ATOM     16  C   UNL     1     133.528 134.216 145.731  1.00  0.00     0.123 A 
ATOM     17  C   UNL     1     134.537 135.316 143.875  1.00  0.00     0.032 A 
ATOM     18  C   UNL     1     133.809 134.249 144.380  1.00  0.00     0.041 A 
ATOM     19  F   UNL     1     132.819 133.183 146.243  1.00  0.00    -0.207 F 
ENDBRANCH   8   9
ENDBRANCH   1   3
BRANCH   1  20
ATOM     20  C   UNL     1     132.717 138.204 152.507  1.00  0.00     0.227 C 
ATOM     21  O   UNL     1     132.077 139.170 152.027  1.00  0.00    -0.274 OA
ATOM     22  N   UNL     1     132.111 137.310 153.423  1.00  0.00    -0.326 N 
ATOM     23  H   UNL     1     132.728 136.533 153.769  1.00  0.00     0.169 HD
BRANCH  22  24
ATOM     24  C   UNL     1     130.802 137.364 153.901  1.00  0.00     0.041 A 
ATOM     25  C   UNL     1     130.162 138.451 154.431  1.00  0.00     0.027 A 
ATOM     26  C   UNL     1     130.032 136.191 153.845  1.00  0.00     0.027 A 
ATOM     27  C   UNL     1     128.839 138.404 154.885  1.00  0.00     0.022 A 
ATOM     28  C   UNL     1     128.741 136.136 154.286  1.00  0.00     0.022 A 
ATOM     29  C   UNL     1     128.116 137.244 154.817  1.00  0.00     0.041 A 
ATOM     30  Cl  UNL     1     126.473 137.122 155.363  1.00  0.00    -0.084 Cl
ENDBRANCH  22  24
ENDBRANCH   1  20
TORSDOF 4
BEGIN_RES TRP A 730
REMARK INDEX MAP 3 1 15 2 18 3 19 4 20 5 22 6 23 7 24 8 25 9 26 10 28 11 29 12
ROOT
ATOM      1  CA  TRP A 730     136.788 143.190 159.307  1.00  0.00     0.175 C 
ENDROOT
BRANCH   1   2
ATOM      2  CB  TRP A 730     137.344 142.010 158.513  1.00  0.00     0.072 C 
BRANCH   2   3
ATOM      3  CG  TRP A 730     136.483 140.795 158.567  1.00  0.00    -0.020 A 
ATOM      4 CD1  TRP A 730     136.357 139.927 159.609  1.00  0.00     0.087 A 
ATOM      5 CD2  TRP A 730     135.619 140.310 157.535  1.00  0.00     0.003 A 
ATOM      6 NE1  TRP A 730     135.471 138.930 159.290  1.00  0.00    -0.359 N 
ATOM      7 CE2  TRP A 730     135.002 139.143 158.021  1.00  0.00     0.046 A 
ATOM      8 CE3  TRP A 730     135.309 140.749 156.246  1.00  0.00     0.010 A 
ATOM      9 HE1  TRP A 730     135.201 138.149 159.904  1.00  0.00     0.166 HD
ATOM     10 CZ2  TRP A 730     134.095 138.409 157.265  1.00  0.00     0.026 A 
ATOM     11 CZ3  TRP A 730     134.407 140.020 155.498  1.00  0.00     0.001 A 
ATOM     12 CH2  TRP A 730     133.812 138.863 156.009  1.00  0.00     0.002 A 
ENDBRANCH   2   3
ENDBRANCH   1   2
END_RES TRP A 730
ENDMDL
MODEL 8
REMARK VINA RESULT:    -6.173      4.772      7.221
REMARK INTER + INTRA:         -11.351
REMARK INTER:                  -7.439
REMARK INTRA:                  -3.911
REMARK UNBOUND:                -3.734
REMARK SMILES C[C@@H](C(=O)Nc1ccc(Cl)cc1)[C@H]1CC[C@@H](c2ccnc3ccc(F)cc32)CC1
REMARK SMILES IDX 2 1 1 2 13 3 14 4 29 5 15 6 28 7 16 8 17 9 18 10 27 11 19 12
REMARK SMILES IDX 26 13 21 14 20 15 24 16 22 17 23 18 25 19 3 20 4 21 5 22
REMARK SMILES IDX 6 24 7 25 12 26 8 27 11 28 9 29 10 30
REMARK H PARENT 5 23
ROOT
ATOM      1  C   UNL     1     135.568 136.969 149.746  1.00  0.00     0.079 C 
ATOM      2  C   UNL     1     136.901 137.678 149.854  1.00  0.00     0.018 C 
ENDROOT
BRANCH   1   3
ATOM      3  C   UNL     1     134.696 137.489 148.639  1.00  0.00     0.001 C 
ATOM      4  C   UNL     1     133.451 136.710 148.466  1.00  0.00     0.005 C 
ATOM      5  C   UNL     1     135.516 137.737 147.398  1.00  0.00     0.005 C 
ATOM      6  C   UNL     1     133.505 135.579 147.458  1.00  0.00     0.009 C 
ATOM      7  C   UNL     1     135.570 136.468 146.515  1.00  0.00     0.009 C 
ATOM      8  C   UNL     1     134.179 136.085 146.233  1.00  0.00     0.020 C 
BRANCH   8   9
ATOM      9  C   UNL     1     133.824 135.514 144.934  1.00  0.00    -0.034 A 
ATOM     10  C   UNL     1     133.889 134.150 144.628  1.00  0.00     0.025 A 
ATOM     11  C   UNL     1     133.354 136.304 143.875  1.00  0.00     0.007 A 
ATOM     12  C   UNL     1     133.528 133.637 143.405  1.00  0.00     0.112 A 
ATOM     13  C   UNL     1     133.231 137.672 143.987  1.00  0.00     0.049 A 
ATOM     14  C   UNL     1     132.999 135.755 142.657  1.00  0.00     0.071 A 
ATOM     15  N   UNL     1     133.082 134.433 142.417  1.00  0.00    -0.256 NA
ATOM     16  C   UNL     1     132.787 138.480 142.985  1.00  0.00     0.123 A 
ATOM     17  C   UNL     1     132.544 136.545 141.617  1.00  0.00     0.032 A 
ATOM     18  C   UNL     1     132.435 137.918 141.774  1.00  0.00     0.041 A 
ATOM     19  F   UNL     1     132.687 139.818 143.157  1.00  0.00    -0.207 F 
ENDBRANCH   8   9
ENDBRANCH   1   3
BRANCH   1  20
ATOM     20  C   UNL     1     134.933 137.007 151.078  1.00  0.00     0.227 C 
ATOM     21  O   UNL     1     135.023 136.010 151.833  1.00  0.00    -0.274 OA
ATOM     22  N   UNL     1     134.231 138.169 151.484  1.00  0.00    -0.326 N 
ATOM     23  H   UNL     1     134.211 138.950 150.782  1.00  0.00     0.169 HD
BRANCH  22  24
ATOM     24  C   UNL     1     133.579 138.368 152.700  1.00  0.00     0.041 A 
ATOM     25  C   UNL     1     134.016 139.121 153.756  1.00  0.00     0.027 A 
ATOM     26  C   UNL     1     132.338 137.740 152.892  1.00  0.00     0.027 A 
ATOM     27  C   UNL     1     133.284 139.260 154.941  1.00  0.00     0.022 A 
ATOM     28  C   UNL     1     131.617 137.870 154.045  1.00  0.00     0.022 A 
ATOM     29  C   UNL     1     132.077 138.634 155.096  1.00  0.00     0.041 A 
ATOM     30  Cl  UNL     1     131.123 138.767 156.540  1.00  0.00    -0.084 Cl
ENDBRANCH  22  24
ENDBRANCH   1  20
TORSDOF 4
BEGIN_RES TRP A 730
REMARK INDEX MAP 3 1 15 2 18 3 19 4 20 5 22 6 23 7 24 8 25 9 26 10 28 11 29 12
ROOT
ATOM      1  CA  TRP A 730     136.788 143.190 159.307  1.00  0.00     0.175 C 
ENDROOT
BRANCH   1   2
ATOM      2  CB  TRP A 730     137.344 142.010 158.513  1.00  0.00     0.072 C 
BRANCH   2   3
ATOM      3  CG  TRP A 730     136.424 140.839 158.460  1.00  0.00    -0.020 A 
ATOM      4 CD1  TRP A 730     135.476 140.585 157.517  1.00  0.00     0.087 A 
ATOM      5 CD2  TRP A 730     136.364 139.753 159.390  1.00  0.00     0.003 A 
ATOM      6 NE1  TRP A 730     134.827 139.410 157.801  1.00  0.00    -0.359 N 
ATOM      7 CE2  TRP A 730     135.356 138.879 158.948  1.00  0.00     0.046 A 
ATOM      8 CE3  TRP A 730     137.066 139.437 160.556  1.00  0.00     0.010 A 
ATOM      9 HE1  TRP A 730     134.067 138.995 157.244  1.00  0.00     0.166 HD
ATOM     10 CZ2  TRP A 730     135.030 137.711 159.628  1.00  0.00     0.026 A 
ATOM     11 CZ3  TRP A 730     136.742 138.276 161.229  1.00  0.00     0.001 A 
ATOM     12 CH2  TRP A 730     135.733 137.428 160.763  1.00  0.00     0.002 A 
ENDBRANCH   2   3
ENDBRANCH   1   2
END_RES TRP A 730
ENDMDL
MODEL 9
REMARK VINA RESULT:    -6.094      5.015      9.258
REMARK INTER + INTRA:         -11.253
REMARK INTER:                  -8.980
REMARK INTRA:                  -2.272
REMARK UNBOUND:                -3.734
REMARK SMILES C[C@@H](C(=O)Nc1ccc(Cl)cc1)[C@H]1CC[C@@H](c2ccnc3ccc(F)cc32)CC1
REMARK SMILES IDX 2 1 1 2 13 3 14 4 29 5 15 6 28 7 16 8 17 9 18 10 27 11 19 12
REMARK SMILES IDX 26 13 21 14 20 15 24 16 22 17 23 18 25 19 3 20 4 21 5 22
REMARK SMILES IDX 6 24 7 25 12 26 8 27 11 28 9 29 10 30
REMARK H PARENT 5 23
ROOT
ATOM      1  C   UNL     1     133.830 137.597 148.498  1.00  0.00     0.079 C 
ATOM      2  C   UNL     1     132.933 138.411 147.591  1.00  0.00     0.018 C 
ENDROOT
BRANCH   1   3
ATOM      3  C   UNL     1     134.649 138.430 149.442  1.00  0.00     0.001 C 
ATOM      4  C   UNL     1     135.321 137.629 150.488  1.00  0.00     0.005 C 
ATOM      5  C   UNL     1     133.856 139.625 149.911  1.00  0.00     0.005 C 
ATOM      6  C   UNL     1     134.567 137.468 151.794  1.00  0.00     0.009 C 
ATOM      7  C   UNL     1     133.056 139.284 151.190  1.00  0.00     0.009 C 
ATOM      8  C   UNL     1     134.026 138.797 152.182  1.00  0.00     0.020 C 
BRANCH   8   9
ATOM      9  C   UNL     1     133.845 139.109 153.599  1.00  0.00    -0.034 A 
ATOM     10  C   UNL     1     134.773 139.814 154.376  1.00  0.00     0.025 A 
ATOM     11  C   UNL     1     132.689 138.741 154.304  1.00  0.00     0.007 A 
ATOM     12  C   UNL     1     134.568 140.114 155.702  1.00  0.00     0.112 A 
ATOM     13  C   UNL     1     131.669 138.034 153.707  1.00  0.00     0.049 A 
ATOM     14  C   UNL     1     132.516 139.060 155.637  1.00  0.00     0.071 A 
ATOM     15  N   UNL     1     133.442 139.741 156.337  1.00  0.00    -0.256 NA
ATOM     16  C   UNL     1     130.533 137.649 154.351  1.00  0.00     0.123 A 
ATOM     17  C   UNL     1     131.374 138.685 156.323  1.00  0.00     0.032 A 
ATOM     18  C   UNL     1     130.371 137.974 155.682  1.00  0.00     0.041 A 
ATOM     19  F   UNL     1     129.565 136.956 153.708  1.00  0.00    -0.207 F 
ENDBRANCH   8   9
ENDBRANCH   1   3
BRANCH   1  20
ATOM     20  C   UNL     1     134.630 136.697 147.644  1.00  0.00     0.227 C 
ATOM     21  O   UNL     1     134.567 135.458 147.823  1.00  0.00    -0.274 OA
ATOM     22  N   UNL     1     135.458 137.247 146.634  1.00  0.00    -0.326 N 
ATOM     23  H   UNL     1     135.444 138.295 146.562  1.00  0.00     0.169 HD
BRANCH  22  24
ATOM     24  C   UNL     1     136.272 136.544 145.747  1.00  0.00     0.041 A 
ATOM     25  C   UNL     1     135.873 135.625 144.813  1.00  0.00     0.027 A 
ATOM     26  C   UNL     1     137.655 136.781 145.793  1.00  0.00     0.027 A 
ATOM     27  C   UNL     1     136.772 134.970 143.965  1.00  0.00     0.022 A 
ATOM     28  C   UNL     1     138.539 136.146 144.969  1.00  0.00     0.022 A 
ATOM     29  C   UNL     1     138.115 135.224 144.035  1.00  0.00     0.041 A 
ATOM     30  Cl  UNL     1     139.279 134.444 143.011  1.00  0.00    -0.084 Cl
ENDBRANCH  22  24
ENDBRANCH   1  20
TORSDOF 4
BEGIN_RES TRP A 730
REMARK INDEX MAP 3 1 15 2 18 3 19 4 20 5 22 6 23 7 24 8 25 9 26 10 28 11 29 12
ROOT
ATOM      1  CA  TRP A 730     136.788 143.190 159.307  1.00  0.00     0.175 C 
ENDROOT
BRANCH   1   2
ATOM      2  CB  TRP A 730     137.344 142.010 158.513  1.00  0.00     0.072 C 
BRANCH   2   3
ATOM      3  CG  TRP A 730     137.560 140.786 159.335  1.00  0.00    -0.020 A 
ATOM      4 CD1  TRP A 730     138.729 140.375 159.899  1.00  0.00     0.087 A 
ATOM      5 CD2  TRP A 730     136.578 139.809 159.693  1.00  0.00     0.003 A 
ATOM      6 NE1  TRP A 730     138.538 139.202 160.584  1.00  0.00    -0.359 N 
ATOM      7 CE2  TRP A 730     137.223 138.834 160.474  1.00  0.00     0.046 A 
ATOM      8 CE3  TRP A 730     135.214 139.665 159.427  1.00  0.00     0.010 A 
ATOM      9 HE1  TRP A 730     139.264 138.683 161.098  1.00  0.00     0.166 HD
ATOM     10 CZ2  TRP A 730     136.555 137.730 160.991  1.00  0.00     0.026 A 
ATOM     11 CZ3  TRP A 730     134.552 138.569 159.943  1.00  0.00     0.001 A 
ATOM     12 CH2  TRP A 730     135.223 137.616 160.714  1.00  0.00     0.002 A 
ENDBRANCH   2   3
ENDBRANCH   1   2
END_RES TRP A 730
ENDMDL
