MODEL 1
REMARK VINA RESULT:    -8.775      0.000      0.000
REMARK INTER + INTRA:          -8.775
REMARK INTER:                  -8.775
REMARK INTRA:                   0.000
REMARK UNBOUND:                 0.000
REMARK VINA RESULT:    -7.501      0.000      0.000
REMARK INTER + INTRA:         -12.989
REMARK INTER:                  -9.255
REMARK INTRA:                  -3.734
REMARK UNBOUND:                -3.734
REMARK SMILES C[C@@H](C(=O)Nc1ccc(Cl)cc1)[C@H]1CC[C@@H](c2ccnc3ccc(F)cc32)CC1
REMARK SMILES IDX 2 1 1 2 13 3 14 4 29 5 15 6 28 7 16 8 17 9 18 10 27 11 19 12
REMARK SMILES IDX 26 13 21 14 20 15 24 16 22 17 23 18 25 19 3 20 4 21 5 22
REMARK SMILES IDX 6 24 7 25 12 26 8 27 11 28 9 29 10 30
REMARK H PARENT 5 23
ROOT
ATOM      1  C   UNL     1     130.418 138.052 156.742  1.00  0.00     0.079 C 
ATOM      2  C   UNL     1     130.937 138.348 158.132  1.00  0.00     0.018 C 
ATOM      3  C   UNL     1     131.134 138.805 155.656  1.00  0.00     0.001 C 
ATOM      4  C   UNL     1     130.559 138.575 154.313  1.00  0.00     0.005 C 
ATOM      5  C   UNL     1     132.626 138.629 155.792  1.00  0.00     0.005 C 
ATOM      6  C   UNL     1     131.182 137.454 153.503  1.00  0.00     0.009 C 
ATOM      7  C   UNL     1     133.106 137.391 155.001  1.00  0.00     0.009 C 
ATOM      8  C   UNL     1     132.659 137.574 153.611  1.00  0.00     0.020 C 
ATOM      9  C   UNL     1     133.497 137.111 152.505  1.00  0.00    -0.034 A 
ATOM     10  C   UNL     1     133.860 135.776 152.296  1.00  0.00     0.025 A 
ATOM     11  C   UNL     1     133.994 137.986 151.528  1.00  0.00     0.007 A 
ATOM     12  C   UNL     1     134.631 135.364 151.235  1.00  0.00     0.112 A 
ATOM     13  C   UNL     1     133.748 139.340 151.572  1.00  0.00     0.049 A 
ATOM     14  C   UNL     1     134.766 137.538 150.473  1.00  0.00     0.071 A 
ATOM     15  N   UNL     1     135.085 136.239 150.320  1.00  0.00    -0.256 NA
ATOM     16  C   UNL     1     134.214 140.229 150.652  1.00  0.00     0.123 A 
ATOM     17  C   UNL     1     135.257 138.411 149.519  1.00  0.00     0.032 A 
ATOM     18  C   UNL     1     134.983 139.768 149.602  1.00  0.00     0.041 A 
ATOM     19  F   UNL     1     133.937 141.550 150.750  1.00  0.00    -0.207 F 
ATOM     20  C   UNL     1     128.957 138.265 156.756  1.00  0.00     0.227 C 
ATOM     21  O   UNL     1     128.469 139.145 157.504  1.00  0.00    -0.274 OA
ATOM     22  N   UNL     1     128.128 137.471 155.925  1.00  0.00    -0.326 N 
ATOM     23  H   UNL     1     128.629 136.761 155.335  1.00  0.00     0.169 HD
ATOM     24  C   UNL     1     126.739 137.543 155.819  1.00  0.00     0.041 A 
ATOM     25  C   UNL     1     125.832 136.605 156.229  1.00  0.00     0.027 A 
ATOM     26  C   UNL     1     126.183 138.690 155.231  1.00  0.00     0.027 A 
ATOM     27  C   UNL     1     124.450 136.770 156.077  1.00  0.00     0.022 A 
ATOM     28  C   UNL     1     124.836 138.860 155.080  1.00  0.00     0.022 A 
ATOM     29  C   UNL     1     123.939 137.901 155.500  1.00  0.00     0.041 A 
ATOM     30  Cl  UNL     1     122.239 138.165 155.284  1.00  0.00    -0.084 Cl
ENDROOT
TORSDOF 0
ENDMDL
MODEL 2
REMARK VINA RESULT:    -6.938      5.754      9.810
REMARK INTER + INTRA:          -6.938
REMARK INTER:                  -6.938
REMARK INTRA:                   0.000
REMARK UNBOUND:                 0.000
REMARK VINA RESULT:    -7.501      0.000      0.000
REMARK INTER + INTRA:         -12.989
REMARK INTER:                  -9.255
REMARK INTRA:                  -3.734
REMARK UNBOUND:                -3.734
REMARK SMILES C[C@@H](C(=O)Nc1ccc(Cl)cc1)[C@H]1CC[C@@H](c2ccnc3ccc(F)cc32)CC1
REMARK SMILES IDX 2 1 1 2 13 3 14 4 29 5 15 6 28 7 16 8 17 9 18 10 27 11 19 12
REMARK SMILES IDX 26 13 21 14 20 15 24 16 22 17 23 18 25 19 3 20 4 21 5 22
REMARK SMILES IDX 6 24 7 25 12 26 8 27 11 28 9 29 10 30
REMARK H PARENT 5 23
ROOT
ATOM      1  C   UNL     1     135.426 138.618 146.724  1.00  0.00     0.079 C 
ATOM      2  C   UNL     1     136.637 137.947 146.112  1.00  0.00     0.018 C 
ATOM      3  C   UNL     1     134.694 137.757 147.714  1.00  0.00     0.001 C 
ATOM      4  C   UNL     1     133.465 138.390 148.237  1.00  0.00     0.005 C 
ATOM      5  C   UNL     1     135.656 137.200 148.736  1.00  0.00     0.005 C 
ATOM      6  C   UNL     1     133.615 139.181 149.522  1.00  0.00     0.009 C 
ATOM      7  C   UNL     1     135.789 138.159 149.941  1.00  0.00     0.009 C 
ATOM      8  C   UNL     1     134.433 138.375 150.466  1.00  0.00     0.020 C 
ATOM      9  C   UNL     1     134.219 138.527 151.905  1.00  0.00    -0.034 A 
ATOM     10  C   UNL     1     134.769 139.554 152.680  1.00  0.00     0.025 A 
ATOM     11  C   UNL     1     133.407 137.647 152.635  1.00  0.00     0.007 A 
ATOM     12  C   UNL     1     134.534 139.685 154.029  1.00  0.00     0.112 A 
ATOM     13  C   UNL     1     132.787 136.569 152.044  1.00  0.00     0.049 A 
ATOM     14  C   UNL     1     133.191 137.810 153.991  1.00  0.00     0.071 A 
ATOM     15  N   UNL     1     133.746 138.818 154.688  1.00  0.00    -0.256 NA
ATOM     16  C   UNL     1     131.996 135.685 152.712  1.00  0.00     0.123 A 
ATOM     17  C   UNL     1     132.394 136.932 154.703  1.00  0.00     0.032 A 
ATOM     18  C   UNL     1     131.788 135.859 154.066  1.00  0.00     0.041 A 
ATOM     19  F   UNL     1     131.414 134.643 152.074  1.00  0.00    -0.207 F 
ATOM     20  C   UNL     1     134.581 139.109 145.617  1.00  0.00     0.227 C 
ATOM     21  O   UNL     1     134.548 138.473 144.537  1.00  0.00    -0.274 OA
ATOM     22  N   UNL     1     133.821 140.292 145.792  1.00  0.00    -0.326 N 
ATOM     23  H   UNL     1     133.914 140.753 146.731  1.00  0.00     0.169 HD
ATOM     24  C   UNL     1     132.977 140.887 144.854  1.00  0.00     0.041 A 
ATOM     25  C   UNL     1     133.169 142.083 144.216  1.00  0.00     0.027 A 
ATOM     26  C   UNL     1     131.796 140.212 144.508  1.00  0.00     0.027 A 
ATOM     27  C   UNL     1     132.258 142.598 143.286  1.00  0.00     0.022 A 
ATOM     28  C   UNL     1     130.903 140.708 143.602  1.00  0.00     0.022 A 
ATOM     29  C   UNL     1     131.115 141.915 142.971  1.00  0.00     0.041 A 
ATOM     30  Cl  UNL     1     129.950 142.501 141.827  1.00  0.00    -0.084 Cl
ENDROOT
TORSDOF 0
ENDMDL
MODEL 3
REMARK VINA RESULT:    -5.856      7.192     12.192
REMARK INTER + INTRA:          -5.856
REMARK INTER:                  -5.856
REMARK INTRA:                   0.000
REMARK UNBOUND:                 0.000
REMARK VINA RESULT:    -7.501      0.000      0.000
REMARK INTER + INTRA:         -12.989
REMARK INTER:                  -9.255
REMARK INTRA:                  -3.734
REMARK UNBOUND:                -3.734
REMARK SMILES C[C@@H](C(=O)Nc1ccc(Cl)cc1)[C@H]1CC[C@@H](c2ccnc3ccc(F)cc32)CC1
REMARK SMILES IDX 2 1 1 2 13 3 14 4 29 5 15 6 28 7 16 8 17 9 18 10 27 11 19 12
REMARK SMILES IDX 26 13 21 14 20 15 24 16 22 17 23 18 25 19 3 20 4 21 5 22
REMARK SMILES IDX 6 24 7 25 12 26 8 27 11 28 9 29 10 30
REMARK H PARENT 5 23
ROOT
ATOM      1  C   UNL     1     135.632 136.220 145.395  1.00  0.00     0.079 C 
ATOM      2  C   UNL     1     134.641 136.069 144.262  1.00  0.00     0.018 C 
ATOM      3  C   UNL     1     135.247 137.270 146.399  1.00  0.00     0.001 C 
ATOM      4  C   UNL     1     136.266 137.470 147.451  1.00  0.00     0.005 C 
ATOM      5  C   UNL     1     133.828 137.054 146.865  1.00  0.00     0.005 C 
ATOM      6  C   UNL     1     136.089 136.654 148.717  1.00  0.00     0.009 C 
ATOM      7  C   UNL     1     133.792 136.120 148.096  1.00  0.00     0.009 C 
ATOM      8  C   UNL     1     134.660 136.727 149.117  1.00  0.00     0.020 C 
ATOM      9  C   UNL     1     134.308 136.627 150.533  1.00  0.00    -0.034 A 
ATOM     10  C   UNL     1     134.194 135.421 151.233  1.00  0.00     0.025 A 
ATOM     11  C   UNL     1     134.075 137.760 151.326  1.00  0.00     0.007 A 
ATOM     12  C   UNL     1     133.883 135.355 152.571  1.00  0.00     0.112 A 
ATOM     13  C   UNL     1     134.134 139.034 150.809  1.00  0.00     0.049 A 
ATOM     14  C   UNL     1     133.766 137.657 152.670  1.00  0.00     0.071 A 
ATOM     15  N   UNL     1     133.669 136.469 153.294  1.00  0.00    -0.256 NA
ATOM     16  C   UNL     1     133.909 140.162 151.537  1.00  0.00     0.123 A 
ATOM     17  C   UNL     1     133.531 138.781 153.441  1.00  0.00     0.032 A 
ATOM     18  C   UNL     1     133.602 140.047 152.878  1.00  0.00     0.041 A 
ATOM     19  F   UNL     1     133.982 141.389 150.970  1.00  0.00    -0.207 F 
ATOM     20  C   UNL     1     136.966 136.425 144.797  1.00  0.00     0.227 C 
ATOM     21  O   UNL     1     137.066 137.031 143.704  1.00  0.00    -0.274 OA
ATOM     22  N   UNL     1     138.114 135.932 145.465  1.00  0.00    -0.326 N 
ATOM     23  H   UNL     1     137.929 135.438 146.374  1.00  0.00     0.169 HD
ATOM     24  C   UNL     1     139.438 136.039 145.040  1.00  0.00     0.041 A 
ATOM     25  C   UNL     1     140.254 135.024 144.621  1.00  0.00     0.027 A 
ATOM     26  C   UNL     1     140.025 137.315 145.032  1.00  0.00     0.027 A 
ATOM     27  C   UNL     1     141.576 135.235 144.212  1.00  0.00     0.022 A 
ATOM     28  C   UNL     1     141.314 137.529 144.633  1.00  0.00     0.022 A 
ATOM     29  C   UNL     1     142.118 136.491 144.215  1.00  0.00     0.041 A 
ATOM     30  Cl  UNL     1     143.749 136.816 143.720  1.00  0.00    -0.084 Cl
ENDROOT
TORSDOF 0
ENDMDL
