REMARK VINA RESULT:    -7.501      0.000      0.000
REMARK INTER + INTRA:         -12.989
REMARK INTER:                  -9.255
REMARK INTRA:                  -3.734
REMARK UNBOUND:                -3.734
REMARK SMILES C[C@@H](C(=O)Nc1ccc(Cl)cc1)[C@H]1CC[C@@H](c2ccnc3ccc(F)cc32)CC1
REMARK SMILES IDX 2 1 1 2 13 3 14 4 29 5 15 6 28 7 16 8 17 9 18 10 27 11 19 12
REMARK SMILES IDX 26 13 21 14 20 15 24 16 22 17 23 18 25 19 3 20 4 21 5 22
REMARK SMILES IDX 6 24 7 25 12 26 8 27 11 28 9 29 10 30
REMARK H PARENT 5 23
ROOT
ATOM      1  C   UNL     1     130.407 138.069 156.823  1.00  0.00     0.079 C 
ATOM      2  C   UNL     1     130.914 138.370 158.217  1.00  0.00     0.018 C 
ATOM      3  C   UNL     1     131.128 138.824 155.742  1.00  0.00     0.001 C 
ATOM      4  C   UNL     1     130.565 138.589 154.395  1.00  0.00     0.005 C 
ATOM      5  C   UNL     1     132.620 138.654 155.890  1.00  0.00     0.005 C 
ATOM      6  C   UNL     1     131.199 137.470 153.591  1.00  0.00     0.009 C 
ATOM      7  C   UNL     1     133.111 137.417 155.104  1.00  0.00     0.009 C 
ATOM      8  C   UNL     1     132.675 137.596 153.711  1.00  0.00     0.020 C 
ATOM      9  C   UNL     1     133.523 137.135 152.612  1.00  0.00    -0.034 A 
ATOM     10  C   UNL     1     133.893 135.801 152.408  1.00  0.00     0.025 A 
ATOM     11  C   UNL     1     134.024 138.011 151.638  1.00  0.00     0.007 A 
ATOM     12  C   UNL     1     134.674 135.391 151.353  1.00  0.00     0.112 A 
ATOM     13  C   UNL     1     133.772 139.364 151.678  1.00  0.00     0.049 A 
ATOM     14  C   UNL     1     134.806 137.564 150.589  1.00  0.00     0.071 A 
ATOM     15  N   UNL     1     135.132 136.267 150.441  1.00  0.00    -0.256 NA
ATOM     16  C   UNL     1     134.242 140.253 150.760  1.00  0.00     0.123 A 
ATOM     17  C   UNL     1     135.301 138.438 149.638  1.00  0.00     0.032 A 
ATOM     18  C   UNL     1     135.021 139.794 149.717  1.00  0.00     0.041 A 
ATOM     19  F   UNL     1     133.959 141.573 150.854  1.00  0.00    -0.207 F 
ATOM     20  C   UNL     1     128.945 138.276 156.825  1.00  0.00     0.227 C 
ATOM     21  O   UNL     1     128.448 139.155 157.568  1.00  0.00    -0.274 OA
ATOM     22  N   UNL     1     128.126 137.478 155.989  1.00  0.00    -0.326 N 
ATOM     23  H   UNL     1     128.635 136.769 155.404  1.00  0.00     0.169 HD
ATOM     24  C   UNL     1     126.738 137.544 155.872  1.00  0.00     0.041 A 
ATOM     25  C   UNL     1     125.831 136.602 156.276  1.00  0.00     0.027 A 
ATOM     26  C   UNL     1     126.181 138.688 155.278  1.00  0.00     0.027 A 
ATOM     27  C   UNL     1     124.450 136.762 156.113  1.00  0.00     0.022 A 
ATOM     28  C   UNL     1     124.835 138.852 155.116  1.00  0.00     0.022 A 
ATOM     29  C   UNL     1     123.939 137.890 155.530  1.00  0.00     0.041 A 
ATOM     30  Cl  UNL     1     122.239 138.146 155.301  1.00  0.00    -0.084 Cl
ENDROOT
TORSDOF 0
