MODEL 1
REMARK VINA RESULT:    -6.525      0.000      0.000
REMARK INTER + INTRA:          -6.384
REMARK INTER:                  -7.288
REMARK INTRA:                   0.904
REMARK UNBOUND:                 0.904
REMARK SMILES Cc1cc(C)c(S(=O)(=O)n2cc(C)cc2C)c(C)c1
REMARK SMILES IDX 7 1 8 2 9 3 6 4 2 5 3 6 19 7 4 8 17 9 1 10 5 11 18 12 10 13
REMARK SMILES IDX 11 14 15 15 12 16 14 17 16 18 13 19
REMARK H PARENT
ROOT
ATOM      1  S   UNL     1     134.138 135.851 151.623  1.00  0.00     0.268 S 
ATOM      2  O   UNL     1     135.475 136.188 152.073  1.00  0.00    -0.201 OA
ATOM      3  O   UNL     1     133.752 134.472 151.395  1.00  0.00    -0.201 OA
ENDROOT
BRANCH   1   4
ATOM      4  C   UNL     1     132.880 136.614 152.662  1.00  0.00     0.094 A 
ATOM      5  C   UNL     1     130.854 137.783 154.248  1.00  0.00    -0.051 A 
ATOM      6  C   UNL     1     131.985 138.516 153.885  1.00  0.00     0.008 A 
ATOM      7  C   UNL     1     130.756 136.451 153.845  1.00  0.00     0.008 A 
ATOM      8  C   UNL     1     133.010 137.956 153.100  1.00  0.00    -0.030 A 
ATOM      9  C   UNL     1     131.750 135.848 153.051  1.00  0.00    -0.030 A 
ATOM     10  C   UNL     1     129.796 138.395 155.119  1.00  0.00     0.044 C 
ATOM     11  C   UNL     1     134.181 138.847 152.784  1.00  0.00     0.046 C 
ATOM     12  C   UNL     1     131.555 134.393 152.711  1.00  0.00     0.046 C 
ENDBRANCH   1   4
BRANCH   1  13
ATOM     13  N   UNL     1     134.006 136.672 150.124  1.00  0.00    -0.246 N 
ATOM     14  C   UNL     1     132.795 136.906 149.517  1.00  0.00     0.107 A 
ATOM     15  C   UNL     1     135.010 137.339 149.453  1.00  0.00     0.031 A 
ATOM     16  C   UNL     1     133.024 137.637 148.368  1.00  0.00    -0.032 A 
ATOM     17  C   UNL     1     134.422 137.905 148.333  1.00  0.00     0.027 A 
ATOM     18  C   UNL     1     136.428 137.403 149.892  1.00  0.00     0.066 C 
ATOM     19  C   UNL     1     132.010 138.091 147.383  1.00  0.00     0.046 C 
ENDBRANCH   1  13
TORSDOF 2
ENDMDL
