MODEL 1
REMARK VINA RESULT:    -7.517      0.000      0.000
REMARK INTER + INTRA:          -9.574
REMARK INTER:                  -8.836
REMARK INTRA:                  -0.739
REMARK UNBOUND:                -0.739
REMARK SMILES Cc1nnc(-c2ccc3occ(-c4ccc([S@](C)=O)cc4)c3c2)o1
REMARK SMILES IDX 6 1 7 2 8 3 9 4 10 5 11 6 12 7 22 8 23 9 5 10 2 11 3 12
REMARK SMILES IDX 24 13 4 14 1 15 13 16 14 17 21 18 15 19 20 20 16 21 17 22
REMARK SMILES IDX 19 23 18 24
REMARK H PARENT
ROOT
ATOM      1  C   UNL     1     129.818 137.378 155.020  1.00  0.00     0.040 A 
ATOM      2  C   UNL     1     130.118 138.202 156.120  1.00  0.00     0.018 A 
ATOM      3  C   UNL     1     131.280 138.985 156.162  1.00  0.00     0.048 A 
ATOM      4  C   UNL     1     132.126 138.903 155.061  1.00  0.00     0.134 A 
ATOM      5  O   UNL     1     133.293 139.586 154.914  1.00  0.00    -0.464 OA
ATOM      6  C   UNL     1     133.813 139.228 153.711  1.00  0.00     0.205 A 
ATOM      7  C   UNL     1     132.994 138.320 153.071  1.00  0.00     0.028 A 
ATOM      8  C   UNL     1     131.889 138.103 153.950  1.00  0.00     0.029 A 
ATOM      9  C   UNL     1     130.709 137.331 153.928  1.00  0.00     0.026 A 
ENDROOT
BRANCH   1  10
ATOM     10  C   UNL     1     128.604 136.570 154.979  1.00  0.00     0.247 A 
ATOM     11  C   UNL     1     126.537 136.165 154.696  1.00  0.00     0.213 A 
ATOM     12  N   UNL     1     127.090 135.024 155.046  1.00  0.00    -0.113 NA
ATOM     13  O   UNL     1     127.434 137.196 154.630  1.00  0.00    -0.421 OA
ATOM     14  N   UNL     1     128.432 135.287 155.231  1.00  0.00    -0.108 NA
ATOM     15  C   UNL     1     125.134 136.471 154.377  1.00  0.00     0.113 C 
ENDBRANCH   1  10
BRANCH   7  16
ATOM     16  C   UNL     1     133.296 137.745 151.774  1.00  0.00    -0.014 A 
ATOM     17  C   UNL     1     132.995 138.439 150.595  1.00  0.00     0.010 A 
ATOM     18  C   UNL     1     133.894 136.482 151.687  1.00  0.00     0.010 A 
ATOM     19  C   UNL     1     133.285 137.877 149.347  1.00  0.00     0.018 A 
ATOM     20  C   UNL     1     134.186 135.921 150.439  1.00  0.00     0.018 A 
ATOM     21  C   UNL     1     133.876 136.613 149.265  1.00  0.00     0.039 A 
BRANCH  21  22
ATOM     22  S   UNL     1     134.244 135.905 147.643  1.00  0.00     0.050 S 
ATOM     23  O   UNL     1     133.607 134.547 147.632  1.00  0.00    -0.255 OA
ATOM     24  C   UNL     1     133.176 137.005 146.676  1.00  0.00     0.129 C 
ENDBRANCH  21  22
ENDBRANCH   7  16
TORSDOF 3
ENDMDL
