MODEL 1
REMARK VINA RESULT:    -7.072      0.000      0.000
REMARK INTER + INTRA:         -13.423
REMARK INTER:                 -11.413
REMARK INTRA:                  -2.010
REMARK UNBOUND:                -2.010
REMARK SMILES CCc1cc(C(C)=O)c(O)cc1OCCCCCC(C)(C)c1nn[nH]n1
REMARK SMILES IDX 15 1 14 2 13 3 12 4 3 5 4 6 5 7 11 8 9 9 2 10 1 11 6 12 8 13
REMARK SMILES IDX 7 14 10 15 16 17 17 18 18 19 19 20 20 21 21 22 22 23 23 24
REMARK SMILES IDX 26 25 24 26 25 27
REMARK H PARENT 10 16 25 28
ROOT
ATOM      1  C   UNL     1     134.524 139.258 152.872  1.00  0.00     0.042 C 
ENDROOT
BRANCH   1   2
ATOM      2  C   UNL     1     133.840 139.525 154.214  1.00  0.00     0.229 C 
BRANCH   2   3
ATOM      3  O   UNL     1     133.404 138.282 154.761  1.00  0.00    -0.493 OA
BRANCH   3   4
ATOM      4  C   UNL     1     132.110 138.184 155.197  1.00  0.00     0.126 A 
ATOM      5  C   UNL     1     131.254 137.412 154.392  1.00  0.00    -0.005 A 
ATOM      6  C   UNL     1     129.905 137.270 154.759  1.00  0.00     0.023 A 
ATOM      7  C   UNL     1     129.402 137.867 155.924  1.00  0.00     0.060 A 
ATOM      8  C   UNL     1     131.609 138.793 156.352  1.00  0.00     0.093 A 
ATOM      9  C   UNL     1     130.263 138.639 156.710  1.00  0.00     0.130 A 
BRANCH   5  10
ATOM     10  C   UNL     1     131.740 136.754 153.120  1.00  0.00     0.036 C 
ATOM     11  C   UNL     1     131.256 135.315 153.002  1.00  0.00     0.009 C 
ENDBRANCH   5  10
BRANCH   7  12
ATOM     12  C   UNL     1     127.961 137.649 156.234  1.00  0.00     0.163 C 
ATOM     13  O   UNL     1     127.646 136.791 157.060  1.00  0.00    -0.294 OA
ATOM     14  C   UNL     1     126.913 138.492 155.558  1.00  0.00     0.093 C 
ENDBRANCH   7  12
BRANCH   9  15
ATOM     15  O   UNL     1     129.800 139.281 157.826  1.00  0.00    -0.507 OA
ATOM     16  H   UNL     1     129.354 140.105 157.569  1.00  0.00     0.293 HD
ENDBRANCH   9  15
ENDBRANCH   3   4
ENDBRANCH   2   3
ENDBRANCH   1   2
BRANCH   1  17
ATOM     17  C   UNL     1     133.760 139.886 151.701  1.00  0.00     0.004 C 
BRANCH  17  18
ATOM     18  C   UNL     1     134.496 139.774 150.359  1.00  0.00     0.001 C 
BRANCH  18  19
ATOM     19  C   UNL     1     134.156 138.490 149.589  1.00  0.00     0.014 C 
BRANCH  19  20
ATOM     20  C   UNL     1     135.295 137.432 149.488  1.00  0.00     0.029 C 
ATOM     21  C   UNL     1     136.653 138.053 149.885  1.00  0.00     0.020 C 
ATOM     22  C   UNL     1     135.426 136.911 148.039  1.00  0.00     0.020 C 
BRANCH  20  23
ATOM     23  C   UNL     1     134.948 136.282 150.407  1.00  0.00     0.180 A 
ATOM     24  N   UNL     1     134.017 135.326 150.083  1.00  0.00    -0.113 NA
ATOM     25  N   UNL     1     135.462 136.115 151.636  1.00  0.00    -0.139 NA
ATOM     26  N   UNL     1     133.945 134.504 151.120  1.00  0.00    -0.050 NA
ATOM     27  N   UNL     1     134.813 135.001 152.009  1.00  0.00    -0.177 N 
ATOM     28  H   UNL     1     134.965 134.558 152.911  1.00  0.00     0.216 HD
ENDBRANCH  20  23
ENDBRANCH  19  20
ENDBRANCH  18  19
ENDBRANCH  17  18
ENDBRANCH   1  17
TORSDOF 11
ENDMDL
