MODEL 1
REMARK VINA RESULT:    -3.343      0.000      0.000
REMARK INTER + INTRA:          -6.310
REMARK INTER:                  -4.906
REMARK INTRA:                  -1.404
REMARK UNBOUND:                -1.404
REMARK SMILES O=S(=O)(O)CCSSCCS(=O)(=O)O
REMARK SMILES IDX 7 1 6 2 5 3 2 4 1 5 3 6 4 7 8 9 9 10 10 11 11 12 12 13 13 14
REMARK SMILES IDX 14 15
REMARK H PARENT 4 8 14 16
ROOT
ATOM      1  S   UNL     1     133.182 135.336 152.703  1.00  0.00    -0.093 SA
ENDROOT
BRANCH   1   2
ATOM      2  C   UNL     1     131.952 136.224 153.727  1.00  0.00     0.100 C 
BRANCH   2   3
ATOM      3  C   UNL     1     132.559 136.888 154.946  1.00  0.00     0.179 C 
BRANCH   3   4
ATOM      4  S   UNL     1     132.516 138.664 154.789  1.00  0.00     0.265 S 
ATOM      5  O   UNL     1     131.858 139.037 153.559  1.00  0.00    -0.200 OA
ATOM      6  O   UNL     1     132.166 139.248 156.063  1.00  0.00    -0.200 OA
BRANCH   4   7
ATOM      7  O   UNL     1     134.100 138.927 154.616  1.00  0.00    -0.286 OA
ATOM      8  H   UNL     1     134.431 139.331 155.447  1.00  0.00     0.234 HD
ENDBRANCH   4   7
ENDBRANCH   3   4
ENDBRANCH   2   3
ENDBRANCH   1   2
BRANCH   1   9
ATOM      9  S   UNL     1     133.343 136.484 151.004  1.00  0.00    -0.093 SA
BRANCH   9  10
ATOM     10  C   UNL     1     134.628 137.709 151.437  1.00  0.00     0.100 C 
BRANCH  10  11
ATOM     11  C   UNL     1     134.712 138.824 150.413  1.00  0.00     0.179 C 
BRANCH  11  12
ATOM     12  S   UNL     1     134.082 140.326 151.136  1.00  0.00     0.265 S 
ATOM     13  O   UNL     1     134.503 140.409 152.514  1.00  0.00    -0.200 OA
ATOM     14  O   UNL     1     134.243 141.417 150.203  1.00  0.00    -0.200 OA
BRANCH  12  15
ATOM     15  O   UNL     1     132.512 139.951 151.110  1.00  0.00    -0.286 OA
ATOM     16  H   UNL     1     132.331 139.339 151.857  1.00  0.00     0.234 HD
ENDBRANCH  12  15
ENDBRANCH  11  12
ENDBRANCH  10  11
ENDBRANCH   9  10
ENDBRANCH   1   9
TORSDOF 9
ENDMDL
