MODEL 1
REMARK VINA RESULT:    -6.166      0.000      0.000
REMARK INTER + INTRA:          -8.304
REMARK INTER:                  -7.608
REMARK INTRA:                  -0.696
REMARK UNBOUND:                -0.696
REMARK SMILES CC(C)c1cc(-c2n[nH]c(=O)n2-c2ccc3c(ccn3C)c2)c(O)cc1O
REMARK SMILES IDX 4 1 5 2 6 3 23 4 25 5 26 6 2 7 1 8 3 9 27 10 7 12 8 13 12 14
REMARK SMILES IDX 9 15 10 16 11 17 13 19 14 20 22 21 15 22 17 23 16 24 18 25
REMARK SMILES IDX 20 26 19 27 21 28 24 29
REMARK H PARENT 27 11 9 18 24 30
ROOT
ATOM      1  C   UNL     1     130.011 135.993 153.740  1.00  0.00    -0.003 A 
ATOM      2  C   UNL     1     131.023 136.970 153.742  1.00  0.00     0.023 A 
ATOM      3  C   UNL     1     132.353 136.629 153.464  1.00  0.00     0.062 A 
ATOM      4  C   UNL     1     132.682 135.315 153.128  1.00  0.00     0.130 A 
ATOM      5  C   UNL     1     131.696 134.330 153.122  1.00  0.00     0.093 A 
ATOM      6  C   UNL     1     130.375 134.672 153.431  1.00  0.00     0.122 A 
ENDROOT
BRANCH   1   7
ATOM      7  C   UNL     1     128.589 136.421 154.069  1.00  0.00     0.017 C 
ATOM      8  C   UNL     1     127.926 135.504 155.101  1.00  0.00     0.012 C 
ATOM      9  C   UNL     1     128.506 137.889 154.492  1.00  0.00     0.012 C 
ENDBRANCH   1   7
BRANCH   6  10
ATOM     10  O   UNL     1     129.415 133.700 153.428  1.00  0.00    -0.508 OA
ATOM     11  H   UNL     1     128.913 133.734 154.258  1.00  0.00     0.293 HD
ENDBRANCH   6  10
BRANCH   3  12
ATOM     12  C   UNL     1     133.360 137.700 153.488  1.00  0.00     0.172 C 
ATOM     13  N   UNL     1     133.751 138.223 154.620  1.00  0.00    -0.152 NA
ATOM     14  N   UNL     1     133.927 138.261 152.370  1.00  0.00    -0.243 N 
ATOM     15  N   UNL     1     134.590 139.225 154.247  1.00  0.00    -0.226 N 
ATOM     16  C   UNL     1     134.710 139.292 152.862  1.00  0.00     0.348 C 
ATOM     17  O   UNL     1     135.418 140.101 152.282  1.00  0.00    -0.246 OA
ATOM     18  H   UNL     1     135.049 139.835 154.907  1.00  0.00     0.195 HD
BRANCH  14  19
ATOM     19  C   UNL     1     133.868 137.874 151.004  1.00  0.00     0.053 A 
ATOM     20  C   UNL     1     134.757 136.915 150.500  1.00  0.00     0.029 A 
ATOM     21  C   UNL     1     132.908 138.410 150.127  1.00  0.00     0.037 A 
ATOM     22  C   UNL     1     134.739 136.504 149.160  1.00  0.00     0.029 A 
ATOM     23  C   UNL     1     132.868 138.020 148.770  1.00  0.00     0.002 A 
ATOM     24  C   UNL     1     133.785 137.076 148.311  1.00  0.00     0.048 A 
ATOM     25  C   UNL     1     132.042 138.378 147.670  1.00  0.00     0.028 A 
ATOM     26  N   UNL     1     133.520 136.877 146.972  1.00  0.00    -0.351 N 
ATOM     27  C   UNL     1     132.470 137.662 146.575  1.00  0.00     0.086 A 
ATOM     28  C   UNL     1     134.239 135.965 146.112  1.00  0.00     0.149 C 
ENDBRANCH  14  19
ENDBRANCH   3  12
BRANCH   4  29
ATOM     29  O   UNL     1     133.968 134.997 152.794  1.00  0.00    -0.507 OA
ATOM     30  H   UNL     1     134.439 135.794 152.499  1.00  0.00     0.293 HD
ENDBRANCH   4  29
TORSDOF 5
ENDMDL
