MODEL 1
REMARK VINA RESULT:    -5.950      0.000      0.000
REMARK INTER + INTRA:         -16.125
REMARK INTER:                 -12.384
REMARK INTRA:                  -3.740
REMARK UNBOUND:                -3.740
REMARK SMILES C[C@H](NC(=O)[C@@H](N)Cc1ccc(O)cc1)C(=O)NCC(=O)N(C)[C@@H](Cc1ccccc1)C(=O)N[C@H](CO)CC[S@@](C)=O
REMARK SMILES IDX 20 1 21 2 19 3 18 4 16 5 17 6 2 8 1 9 3 10 4 11 5 12 6 14
REMARK SMILES IDX 7 15 8 18 9 19 10 20 15 21 11 22 14 23 12 24 13 25 22 27
REMARK SMILES IDX 23 28 24 29 25 30 26 31 27 32 31 33 28 34 30 35 29 36 32 37
REMARK SMILES IDX 33 38 34 39 35 41 36 42 37 43 38 45 39 46 40 47 42 48 41 49
REMARK H PARENT 18 7 3 13 7 16 7 17 13 26 34 40 37 44
ROOT
ATOM      1  C   UNL     1     134.283 135.828 148.554  1.00  0.00     0.242 C 
ATOM      2  O   UNL     1     133.622 134.891 148.084  1.00  0.00    -0.273 OA
ENDROOT
BRANCH   1   3
ATOM      3  C   UNL     1     134.595 135.794 150.071  1.00  0.00     0.216 C 
BRANCH   3   4
ATOM      4  N   UNL     1     133.561 135.564 151.059  1.00  0.00    -0.345 N 
ATOM      5  C   UNL     1     133.796 135.740 152.403  1.00  0.00     0.242 C 
ATOM      6  O   UNL     1     134.844 136.227 152.832  1.00  0.00    -0.273 OA
ATOM      7  H   UNL     1     132.663 135.194 150.748  1.00  0.00     0.164 HD
BRANCH   5   8
ATOM      8  C   UNL     1     132.656 135.289 153.339  1.00  0.00     0.168 C 
ATOM      9  C   UNL     1     131.664 134.389 152.616  1.00  0.00     0.041 C 
BRANCH   8  10
ATOM     10  N   UNL     1     132.001 136.495 153.828  1.00  0.00    -0.343 N 
ATOM     11  C   UNL     1     132.226 137.023 155.074  1.00  0.00     0.237 C 
ATOM     12  O   UNL     1     133.022 136.523 155.867  1.00  0.00    -0.273 OA
ATOM     13  H   UNL     1     131.349 136.943 153.194  1.00  0.00     0.164 HD
BRANCH  11  14
ATOM     14  C   UNL     1     131.395 138.275 155.432  1.00  0.00     0.145 C 
BRANCH  14  15
ATOM     15  N   UNL     1     132.232 139.485 155.631  1.00  0.00    -0.320 NA
ATOM     16  H   UNL     1     132.751 139.684 154.778  1.00  0.00     0.119 HD
ATOM     17  H   UNL     1     132.902 139.314 156.380  1.00  0.00     0.119 HD
ENDBRANCH  14  15
BRANCH  14  18
ATOM     18  C   UNL     1     130.275 138.495 154.396  1.00  0.00     0.064 C 
BRANCH  18  19
ATOM     19  C   UNL     1     128.943 137.867 154.748  1.00  0.00    -0.046 A 
ATOM     20  C   UNL     1     128.729 136.497 154.542  1.00  0.00     0.007 A 
ATOM     21  C   UNL     1     127.899 138.646 155.269  1.00  0.00     0.007 A 
ATOM     22  C   UNL     1     127.494 135.921 154.835  1.00  0.00     0.046 A 
ATOM     23  C   UNL     1     126.661 138.069 155.564  1.00  0.00     0.046 A 
ATOM     24  C   UNL     1     126.469 136.711 155.341  1.00  0.00     0.115 A 
BRANCH  24  25
ATOM     25  O   UNL     1     125.275 136.108 155.608  1.00  0.00    -0.508 OA
ATOM     26  H   UNL     1     124.635 136.386 154.932  1.00  0.00     0.293 HD
ENDBRANCH  24  25
ENDBRANCH  18  19
ENDBRANCH  14  18
ENDBRANCH  11  14
ENDBRANCH   8  10
ENDBRANCH   5   8
ENDBRANCH   3   4
ENDBRANCH   1   3
BRANCH   1  27
ATOM     27  N   UNL     1     134.542 136.962 147.774  1.00  0.00    -0.332 N 
ATOM     28  C   UNL     1     135.929 137.166 147.362  1.00  0.00     0.147 C 
BRANCH  27  29
ATOM     29  C   UNL     1     133.568 138.074 147.589  1.00  0.00     0.178 C 
BRANCH  29  30
ATOM     30  C   UNL     1     133.981 139.440 148.183  1.00  0.00     0.070 C 
BRANCH  30  31
ATOM     31  C   UNL     1     133.965 139.450 149.695  1.00  0.00    -0.045 A 
ATOM     32  C   UNL     1     132.760 139.263 150.387  1.00  0.00     0.004 A 
ATOM     33  C   UNL     1     135.141 139.666 150.425  1.00  0.00     0.004 A 
ATOM     34  C   UNL     1     132.732 139.286 151.782  1.00  0.00     0.000 A 
ATOM     35  C   UNL     1     135.110 139.695 151.821  1.00  0.00     0.000 A 
ATOM     36  C   UNL     1     133.907 139.503 152.498  1.00  0.00     0.000 A 
ENDBRANCH  30  31
ENDBRANCH  29  30
BRANCH  29  37
ATOM     37  C   UNL     1     133.346 138.229 146.067  1.00  0.00     0.243 C 
ATOM     38  O   UNL     1     133.003 137.288 145.353  1.00  0.00    -0.273 OA
ATOM     39  N   UNL     1     133.534 139.510 145.586  1.00  0.00    -0.349 N 
ATOM     40  H   UNL     1     134.226 140.036 146.112  1.00  0.00     0.163 HD
BRANCH  39  41
ATOM     41  C   UNL     1     133.498 139.788 144.149  1.00  0.00     0.108 C 
BRANCH  41  42
ATOM     42  C   UNL     1     134.785 140.503 143.700  1.00  0.00     0.180 C 
BRANCH  42  43
ATOM     43  O   UNL     1     134.480 141.518 142.741  1.00  0.00    -0.394 OA
ATOM     44  H   UNL     1     133.906 141.105 142.069  1.00  0.00     0.210 HD
ENDBRANCH  42  43
ENDBRANCH  41  42
BRANCH  41  45
ATOM     45  C   UNL     1     132.207 140.536 143.775  1.00  0.00     0.041 C 
BRANCH  45  46
ATOM     46  C   UNL     1     131.380 139.902 142.659  1.00  0.00     0.107 C 
BRANCH  46  47
ATOM     47  S   UNL     1     131.339 141.010 141.206  1.00  0.00     0.018 S 
ATOM     48  O   UNL     1     132.759 141.255 140.792  1.00  0.00    -0.260 OA
ATOM     49  C   UNL     1     130.776 142.472 142.113  1.00  0.00     0.123 C 
ENDBRANCH  46  47
ENDBRANCH  45  46
ENDBRANCH  41  45
ENDBRANCH  39  41
ENDBRANCH  29  37
ENDBRANCH  27  29
ENDBRANCH   1  27
TORSDOF 20
ENDMDL
