MODEL 1
REMARK VINA RESULT:    -6.125      0.000      0.000
REMARK INTER + INTRA:          -7.747
REMARK INTER:                  -7.378
REMARK INTRA:                  -0.369
REMARK UNBOUND:                -0.369
REMARK SMILES Nc1ccc(S(=O)(=O)Nc2ccc(Cl)nn2)cc1
REMARK SMILES IDX 6 1 7 2 8 3 5 4 2 5 3 6 18 7 4 8 17 9 1 10 9 13 10 15 11 16
REMARK SMILES IDX 16 17 12 18 15 19 13 20 14 21
REMARK H PARENT 1 11 1 12 9 14
ROOT
ATOM      1  S   UNL     1     131.702 138.329 155.235  1.00  0.00     0.263 S 
ATOM      2  O   UNL     1     132.464 139.495 155.625  1.00  0.00    -0.201 OA
ATOM      3  O   UNL     1     131.208 137.409 156.242  1.00  0.00    -0.201 OA
ENDROOT
BRANCH   1   4
ATOM      4  C   UNL     1     132.621 137.369 154.063  1.00  0.00     0.088 A 
ATOM      5  C   UNL     1     134.090 135.829 152.241  1.00  0.00     0.031 A 
ATOM      6  C   UNL     1     133.139 135.229 153.073  1.00  0.00     0.027 A 
ATOM      7  C   UNL     1     134.359 137.194 152.398  1.00  0.00     0.027 A 
ATOM      8  C   UNL     1     132.391 135.995 153.972  1.00  0.00     0.024 A 
ATOM      9  C   UNL     1     133.619 137.971 153.295  1.00  0.00     0.024 A 
BRANCH   5  10
ATOM     10  N   UNL     1     134.914 135.040 151.431  1.00  0.00    -0.399 N 
ATOM     11  H   UNL     1     134.610 134.994 150.462  1.00  0.00     0.156 HD
ATOM     12  H   UNL     1     135.115 134.123 151.816  1.00  0.00     0.156 HD
ENDBRANCH   5  10
ENDBRANCH   1   4
BRANCH   1  13
ATOM     13  N   UNL     1     130.341 138.812 154.390  1.00  0.00    -0.262 N 
ATOM     14  H   UNL     1     130.569 139.265 153.511  1.00  0.00     0.182 HD
BRANCH  13  15
ATOM     15  C   UNL     1     129.155 138.064 154.506  1.00  0.00     0.162 A 
ATOM     16  C   UNL     1     128.114 138.542 155.285  1.00  0.00     0.053 A 
ATOM     17  N   UNL     1     129.129 136.823 153.986  1.00  0.00    -0.131 NA
ATOM     18  C   UNL     1     126.993 137.736 155.470  1.00  0.00     0.047 A 
ATOM     19  N   UNL     1     128.027 136.023 154.164  1.00  0.00    -0.136 NA
ATOM     20  C   UNL     1     126.990 136.486 154.887  1.00  0.00     0.151 A 
ATOM     21  Cl  UNL     1     125.666 135.417 155.057  1.00  0.00    -0.060 Cl
ENDBRANCH  13  15
ENDBRANCH   1  13
TORSDOF 4
ENDMDL
