MODEL 1
REMARK VINA RESULT:    -7.216      0.000      0.000
REMARK INTER + INTRA:          -8.419
REMARK INTER:                  -8.060
REMARK INTRA:                  -0.360
REMARK UNBOUND:                -0.360
REMARK SMILES O=C1C[C@@H](c2ccc(O)cc2)Oc2cc(O)ccc21
REMARK SMILES IDX 1 1 2 2 3 3 4 4 12 5 13 6 14 7 15 8 17 9 18 10 19 11 5 12
REMARK SMILES IDX 6 13 11 14 7 15 10 16 8 17 9 18 16 20
REMARK H PARENT 9 19 16 21
ROOT
ATOM      1  O   UNL     1     133.460 134.423 151.707  1.00  0.00    -0.294 OA
ATOM      2  C   UNL     1     133.430 135.552 152.184  1.00  0.00     0.170 C 
ATOM      3  C   UNL     1     132.616 135.895 153.399  1.00  0.00     0.131 C 
ATOM      4  C   UNL     1     132.167 137.345 153.270  1.00  0.00     0.211 C 
ATOM      5  O   UNL     1     133.296 138.231 153.196  1.00  0.00    -0.484 OA
ATOM      6  C   UNL     1     134.155 137.917 152.176  1.00  0.00     0.134 A 
ATOM      7  C   UNL     1     134.974 138.945 151.711  1.00  0.00     0.093 A 
ATOM      8  C   UNL     1     135.863 138.688 150.671  1.00  0.00     0.119 A 
ATOM      9  C   UNL     1     135.952 137.423 150.096  1.00  0.00     0.047 A 
ATOM     10  C   UNL     1     135.146 136.388 150.574  1.00  0.00     0.019 A 
ATOM     11  C   UNL     1     134.254 136.639 151.620  1.00  0.00     0.060 A 
ENDROOT
BRANCH   4  12
ATOM     12  C   UNL     1     131.310 137.745 154.458  1.00  0.00    -0.007 A 
ATOM     13  C   UNL     1     129.912 137.826 154.354  1.00  0.00     0.011 A 
ATOM     14  C   UNL     1     131.916 138.078 155.682  1.00  0.00     0.011 A 
ATOM     15  C   UNL     1     129.140 138.219 155.449  1.00  0.00     0.046 A 
ATOM     16  C   UNL     1     131.143 138.472 156.777  1.00  0.00     0.046 A 
ATOM     17  C   UNL     1     129.759 138.538 156.650  1.00  0.00     0.115 A 
BRANCH  17  18
ATOM     18  O   UNL     1     128.967 138.918 157.693  1.00  0.00    -0.508 OA
ATOM     19  H   UNL     1     128.257 139.485 157.352  1.00  0.00     0.293 HD
ENDBRANCH  17  18
ENDBRANCH   4  12
BRANCH   8  20
ATOM     20  O   UNL     1     136.678 139.663 150.176  1.00  0.00    -0.508 OA
ATOM     21  H   UNL     1     136.389 140.523 150.527  1.00  0.00     0.293 HD
ENDBRANCH   8  20
TORSDOF 3
ENDMDL
