MODEL 1
REMARK VINA RESULT:    -4.444      0.000      0.000
REMARK INTER + INTRA:          -6.660
REMARK INTER:                  -5.223
REMARK INTRA:                  -1.437
REMARK UNBOUND:                -1.437
REMARK SMILES Cc1nc(-c2cnn(C)c2-c2ccc(C(F)(F)F)cn2)c2c(N3CCC3)ncnn12
REMARK SMILES IDX 11 1 12 2 13 3 14 4 19 5 20 6 10 7 5 8 6 9 7 10 8 11 9 12
REMARK SMILES IDX 4 13 2 14 3 15 30 16 29 17 21 18 28 19 22 20 27 21 23 22
REMARK SMILES IDX 24 23 26 24 25 25 1 26 15 27 16 28 17 29 18 30
REMARK H PARENT
ROOT
ATOM      1  C   UNL     1     134.676 137.109 146.090  1.00  0.00     0.089 A 
ATOM      2  C   UNL     1     136.060 137.074 146.204  1.00  0.00     0.031 A 
ATOM      3  C   UNL     1     136.642 137.283 147.454  1.00  0.00     0.017 A 
ATOM      4  C   UNL     1     135.830 137.534 148.562  1.00  0.00     0.074 A 
ATOM      5  C   UNL     1     134.461 137.557 148.353  1.00  0.00     0.124 A 
ATOM      6  N   UNL     1     133.872 137.365 147.149  1.00  0.00    -0.254 NA
ENDROOT
BRANCH   1   7
ATOM      7  C   UNL     1     133.981 136.892 144.821  1.00  0.00     0.096 A 
ATOM      8  C   UNL     1     133.571 137.775 143.828  1.00  0.00     0.050 A 
ATOM      9  C   UNL     1     132.968 136.978 142.837  1.00  0.00     0.146 A 
ATOM     10  N   UNL     1     132.936 135.690 143.171  1.00  0.00    -0.180 NA
ATOM     11  N   UNL     1     133.580 135.653 144.359  1.00  0.00    -0.266 N 
ATOM     12  C   UNL     1     133.733 134.369 145.008  1.00  0.00     0.174 C 
BRANCH   8  13
ATOM     13  C   UNL     1     133.758 139.217 143.726  1.00  0.00     0.106 A 
ATOM     14  C   UNL     1     133.144 141.269 143.852  1.00  0.00     0.128 A 
ATOM     15  N   UNL     1     132.675 140.039 143.941  1.00  0.00    -0.231 NA
ATOM     16  N   UNL     1     134.487 141.261 143.565  1.00  0.00    -0.212 N 
ATOM     17  N   UNL     1     135.300 142.324 143.425  1.00  0.00    -0.154 NA
ATOM     18  C   UNL     1     134.880 139.962 143.439  1.00  0.00     0.136 A 
ATOM     19  C   UNL     1     136.523 142.004 143.147  1.00  0.00     0.247 C 
ATOM     20  C   UNL     1     136.242 139.702 143.078  1.00  0.00     0.158 C 
ATOM     21  N   UNL     1     137.021 140.741 142.961  1.00  0.00    -0.215 NA
ATOM     22  N   UNL     1     136.711 138.415 142.865  1.00  0.00    -0.355 N 
ATOM     23  C   UNL     1     136.416 137.861 141.561  1.00  0.00     0.120 C 
ATOM     24  C   UNL     1     138.127 138.224 142.643  1.00  0.00     0.120 C 
ATOM     25  C   UNL     1     137.726 137.082 141.703  1.00  0.00     0.043 C 
ATOM     26  C   UNL     1     132.376 142.523 144.036  1.00  0.00     0.090 C 
ENDBRANCH   8  13
ENDBRANCH   1   7
BRANCH   4  27
ATOM     27  C   UNL     1     136.382 137.736 149.937  1.00  0.00     0.417 C 
ATOM     28  F   UNL     1     135.688 137.068 150.899  1.00  0.00    -0.166 F 
ATOM     29  F   UNL     1     137.673 137.316 150.055  1.00  0.00    -0.166 F 
ATOM     30  F   UNL     1     136.379 139.044 150.314  1.00  0.00    -0.166 F 
ENDBRANCH   4  27
TORSDOF 3
ENDMDL
