MODEL 1
REMARK VINA RESULT:    -4.957      0.000      0.000
REMARK INTER + INTRA:          -6.645
REMARK INTER:                  -6.116
REMARK INTRA:                  -0.529
REMARK UNBOUND:                -0.529
REMARK SMILES C/C=C/c1cc(OC)c(OC)cc1OC
REMARK SMILES IDX 4 1 5 2 6 3 9 4 12 5 13 6 3 7 2 8 1 9 14 10 15 11 7 12 8 13
REMARK SMILES IDX 10 14 11 15
REMARK H PARENT
ROOT
ATOM      1  C   UNL     1     132.520 137.123 154.461  1.00  0.00     0.020 A 
ATOM      2  C   UNL     1     131.884 135.960 153.997  1.00  0.00     0.062 A 
ATOM      3  C   UNL     1     132.369 135.267 152.883  1.00  0.00     0.161 A 
ATOM      4  C   UNL     1     133.520 135.735 152.224  1.00  0.00     0.164 A 
ATOM      5  C   UNL     1     134.171 136.884 152.693  1.00  0.00     0.097 A 
ATOM      6  C   UNL     1     133.684 137.579 153.808  1.00  0.00     0.130 A 
ENDROOT
BRANCH   1   7
ATOM      7  C   UNL     1     132.006 137.821 155.656  1.00  0.00     0.007 C 
ATOM      8  C   UNL     1     130.703 137.965 155.950  1.00  0.00    -0.030 C 
ATOM      9  C   UNL     1     130.205 138.692 157.156  1.00  0.00     0.035 C 
ENDBRANCH   1   7
BRANCH   6  10
ATOM     10  O   UNL     1     134.269 138.708 154.330  1.00  0.00    -0.496 OA
ATOM     11  C   UNL     1     134.575 139.773 153.440  1.00  0.00     0.278 C 
ENDBRANCH   6  10
BRANCH   3  12
ATOM     12  O   UNL     1     131.799 134.129 152.367  1.00  0.00    -0.493 OA
ATOM     13  C   UNL     1     130.557 133.708 152.909  1.00  0.00     0.278 C 
ENDBRANCH   3  12
BRANCH   4  14
ATOM     14  O   UNL     1     133.931 134.999 151.139  1.00  0.00    -0.493 OA
ATOM     15  C   UNL     1     134.348 135.700 149.977  1.00  0.00     0.278 C 
ENDBRANCH   4  14
TORSDOF 4
ENDMDL
