MODEL 1
REMARK VINA RESULT:    -7.002      0.000      0.000
REMARK INTER + INTRA:          -8.959
REMARK INTER:                  -8.231
REMARK INTRA:                  -0.728
REMARK UNBOUND:                -0.728
REMARK SMILES CC1=C(c2ccc(NC3=C(C)C(=O)CC3)cc2)NNC(=O)C1
REMARK SMILES IDX 4 1 5 2 6 3 7 4 16 5 17 6 3 7 2 8 22 9 18 10 20 11 19 12
REMARK SMILES IDX 21 13 1 14 8 17 9 19 10 20 15 21 12 22 14 23 13 24 11 25
REMARK H PARENT 18 15 19 16 8 18
ROOT
ATOM      1  C   UNL     1     128.349 138.131 155.515  1.00  0.00    -0.001 A 
ATOM      2  C   UNL     1     129.130 138.279 156.665  1.00  0.00     0.012 A 
ATOM      3  C   UNL     1     130.520 138.409 156.566  1.00  0.00     0.027 A 
ATOM      4  C   UNL     1     131.160 138.398 155.324  1.00  0.00     0.038 A 
ATOM      5  C   UNL     1     130.365 138.244 154.176  1.00  0.00     0.027 A 
ATOM      6  C   UNL     1     128.976 138.111 154.267  1.00  0.00     0.012 A 
ENDROOT
BRANCH   1   7
ATOM      7  C   UNL     1     126.888 137.980 155.614  1.00  0.00     0.061 C 
ATOM      8  C   UNL     1     126.286 136.777 155.681  1.00  0.00    -0.038 C 
ATOM      9  C   UNL     1     124.779 136.711 155.760  1.00  0.00     0.134 C 
ATOM     10  N   UNL     1     126.170 139.160 155.643  1.00  0.00    -0.298 N 
ATOM     11  C   UNL     1     124.044 138.045 155.644  1.00  0.00     0.242 C 
ATOM     12  N   UNL     1     124.796 139.170 155.407  1.00  0.00    -0.270 N 
ATOM     13  O   UNL     1     122.818 138.119 155.731  1.00  0.00    -0.273 OA
ATOM     14  C   UNL     1     126.974 135.441 155.696  1.00  0.00     0.042 C 
ATOM     15  H   UNL     1     126.677 139.946 155.233  1.00  0.00     0.188 HD
ATOM     16  H   UNL     1     124.313 140.059 155.485  1.00  0.00     0.191 HD
ENDBRANCH   1   7
BRANCH   4  17
ATOM     17  N   UNL     1     132.554 138.482 155.166  1.00  0.00    -0.359 N 
ATOM     18  H   UNL     1     133.049 138.668 156.033  1.00  0.00     0.166 HD
BRANCH  17  19
ATOM     19  C   UNL     1     133.331 138.539 154.029  1.00  0.00     0.022 C 
ATOM     20  C   UNL     1     133.660 137.483 153.265  1.00  0.00     0.011 C 
ATOM     21  C   UNL     1     133.988 139.816 153.560  1.00  0.00     0.062 C 
ATOM     22  C   UNL     1     134.595 137.974 152.238  1.00  0.00     0.160 C 
ATOM     23  C   UNL     1     134.934 139.413 152.438  1.00  0.00     0.087 C 
ATOM     24  O   UNL     1     135.053 137.266 151.352  1.00  0.00    -0.294 OA
ATOM     25  C   UNL     1     133.273 136.054 153.328  1.00  0.00     0.050 C 
ENDBRANCH  17  19
ENDBRANCH   4  17
TORSDOF 3
ENDMDL
