MODEL 1
REMARK VINA RESULT:    -6.415      0.000      0.000
REMARK INTER + INTRA:         -12.495
REMARK INTER:                 -10.916
REMARK INTRA:                  -1.579
REMARK UNBOUND:                -1.579
REMARK SMILES C#CC[C@H](Cc1cnc2nc(N)nc(N)c2n1)c1ccc(C(=O)N[C@@H](CCC(=O)O)C(=O)O)cc1
REMARK SMILES IDX 22 1 23 2 24 3 21 5 18 6 19 7 35 8 20 9 34 10 4 11 3 12 2 13
REMARK SMILES IDX 1 14 5 15 6 16 7 17 17 18 8 19 16 20 9 21 14 22 10 23 13 24
REMARK SMILES IDX 11 25 15 26 12 29 25 32 26 33 27 34 28 35 29 36 30 37 31 39
REMARK SMILES IDX 32 40 33 41
REMARK H PARENT 24 4 15 27 15 28 12 30 12 31 30 38 33 42
ROOT
ATOM      1  C   UNL     1     132.161 139.179 144.866  1.00  0.00     0.251 C 
ATOM      2  O   UNL     1     132.550 138.272 144.142  1.00  0.00    -0.269 OA
ATOM      3  N   UNL     1     131.379 140.228 144.418  1.00  0.00    -0.339 N 
ATOM      4  H   UNL     1     131.477 141.096 144.927  1.00  0.00     0.164 HD
ENDROOT
BRANCH   1   5
ATOM      5  C   UNL     1     132.569 139.228 146.298  1.00  0.00     0.039 A 
ATOM      6  C   UNL     1     133.299 139.243 149.025  1.00  0.00    -0.044 A 
ATOM      7  C   UNL     1     132.646 138.135 148.462  1.00  0.00     0.005 A 
ATOM      8  C   UNL     1     133.562 140.352 148.204  1.00  0.00     0.005 A 
ATOM      9  C   UNL     1     132.283 138.128 147.112  1.00  0.00     0.014 A 
ATOM     10  C   UNL     1     133.199 140.347 146.854  1.00  0.00     0.014 A 
BRANCH   6  11
ATOM     11  C   UNL     1     133.671 139.220 150.505  1.00  0.00     0.037 C 
BRANCH  11  12
ATOM     12  C   UNL     1     135.177 139.497 150.721  1.00  0.00     0.098 C 
ATOM     13  C   UNL     1     136.069 138.427 150.242  1.00  0.00    -0.106 C 
ATOM     14  C   UNL     1     136.808 137.561 149.861  1.00  0.00     0.004 C 
ENDBRANCH  11  12
BRANCH  11  15
ATOM     15  C   UNL     1     133.147 137.954 151.222  1.00  0.00     0.067 C 
BRANCH  15  16
ATOM     16  C   UNL     1     132.748 138.215 152.649  1.00  0.00     0.060 A 
ATOM     17  C   UNL     1     133.559 138.927 153.513  1.00  0.00     0.137 A 
ATOM     18  N   UNL     1     131.580 137.701 153.083  1.00  0.00    -0.244 NA
ATOM     19  N   UNL     1     133.235 139.148 154.808  1.00  0.00    -0.233 NA
ATOM     20  C   UNL     1     131.245 137.944 154.388  1.00  0.00     0.150 A 
ATOM     21  C   UNL     1     132.072 138.663 155.259  1.00  0.00     0.185 A 
ATOM     22  C   UNL     1     130.079 137.477 154.985  1.00  0.00     0.157 A 
ATOM     23  N   UNL     1     131.769 138.883 156.534  1.00  0.00    -0.191 NA
ATOM     24  N   UNL     1     129.755 137.690 156.270  1.00  0.00    -0.194 NA
ATOM     25  C   UNL     1     130.616 138.405 156.986  1.00  0.00     0.224 A 
BRANCH  22  26
ATOM     26  N   UNL     1     129.117 136.790 154.227  1.00  0.00    -0.382 N 
ATOM     27  H   UNL     1     128.820 137.329 153.418  1.00  0.00     0.158 HD
ATOM     28  H   UNL     1     129.446 135.853 154.022  1.00  0.00     0.158 HD
ENDBRANCH  22  26
BRANCH  25  29
ATOM     29  N   UNL     1     130.306 138.634 158.308  1.00  0.00    -0.368 N 
ATOM     30  H   UNL     1     129.316 138.785 158.429  1.00  0.00     0.159 HD
ATOM     31  H   UNL     1     130.758 137.955 158.906  1.00  0.00     0.159 HD
ENDBRANCH  25  29
ENDBRANCH  15  16
ENDBRANCH  11  15
ENDBRANCH   6  11
ENDBRANCH   1   5
BRANCH   3  32
ATOM     32  C   UNL     1     131.100 140.364 142.983  1.00  0.00     0.192 C 
BRANCH  32  33
ATOM     33  C   UNL     1     129.673 140.905 142.799  1.00  0.00     0.049 C 
BRANCH  33  34
ATOM     34  C   UNL     1     129.273 141.980 143.814  1.00  0.00     0.125 C 
BRANCH  34  35
ATOM     35  C   UNL     1     128.295 141.471 144.837  1.00  0.00     0.303 C 
ATOM     36  O   UNL     1     127.115 141.220 144.667  1.00  0.00    -0.252 OA
BRANCH  35  37
ATOM     37  O   UNL     1     128.875 141.273 146.037  1.00  0.00    -0.481 OA
ATOM     38  H   UNL     1     129.734 141.739 145.968  1.00  0.00     0.296 HD
ENDBRANCH  35  37
ENDBRANCH  34  35
ENDBRANCH  33  34
ENDBRANCH  32  33
BRANCH  32  39
ATOM     39  C   UNL     1     132.113 141.324 142.341  1.00  0.00     0.326 C 
ATOM     40  O   UNL     1     132.997 141.934 142.923  1.00  0.00    -0.250 OA
BRANCH  39  41
ATOM     41  O   UNL     1     132.036 141.391 140.991  1.00  0.00    -0.480 OA
ATOM     42  H   UNL     1     131.096 141.617 140.827  1.00  0.00     0.296 HD
ENDBRANCH  39  41
ENDBRANCH  32  39
ENDBRANCH   3  32
TORSDOF 14
ENDMDL
