MODEL 1
REMARK VINA RESULT:    -6.701      0.000      0.000
REMARK INTER + INTRA:          -7.343
REMARK INTER:                  -7.288
REMARK INTRA:                  -0.055
REMARK UNBOUND:                -0.055
REMARK SMILES Cc1cc(C)c(N)c(C#Cc2cccc(F)c2)n1
REMARK SMILES IDX 1 1 2 2 3 3 4 4 5 5 6 6 8 7 9 8 18 9 7 10 10 13 11 14 12 15
REMARK SMILES IDX 17 16 13 17 15 18 14 19 16 20
REMARK H PARENT 7 11 7 12
ROOT
ATOM      1  C   UNL     1     134.424 139.767 153.631  1.00  0.00     0.067 C 
ATOM      2  C   UNL     1     133.733 138.480 153.294  1.00  0.00     0.039 A 
ATOM      3  C   UNL     1     134.395 137.503 152.555  1.00  0.00     0.029 A 
ATOM      4  C   UNL     1     133.740 136.302 152.241  1.00  0.00    -0.023 A 
ATOM      5  C   UNL     1     134.457 135.277 151.408  1.00  0.00     0.047 C 
ATOM      6  C   UNL     1     132.437 136.090 152.720  1.00  0.00     0.069 A 
ATOM      7  C   UNL     1     131.843 137.166 153.406  1.00  0.00     0.136 A 
ATOM      8  C   UNL     1     130.487 137.113 153.869  1.00  0.00    -0.039 C 
ATOM      9  N   UNL     1     132.463 138.329 153.719  1.00  0.00    -0.242 NA
ENDROOT
BRANCH   6  10
ATOM     10  N   UNL     1     131.709 134.945 152.331  1.00  0.00    -0.396 N 
ATOM     11  H   UNL     1     131.716 134.770 151.332  1.00  0.00     0.156 HD
ATOM     12  H   UNL     1     131.952 134.114 152.864  1.00  0.00     0.156 HD
ENDBRANCH   6  10
BRANCH   8  13
ATOM     13  C   UNL     1     129.351 137.067 154.257  1.00  0.00    -0.060 C 
ATOM     14  C   UNL     1     128.000 137.011 154.720  1.00  0.00     0.028 A 
ATOM     15  C   UNL     1     127.388 135.772 154.939  1.00  0.00     0.017 A 
ATOM     16  C   UNL     1     127.290 138.190 154.949  1.00  0.00     0.056 A 
ATOM     17  C   UNL     1     126.066 135.711 155.388  1.00  0.00     0.004 A 
ATOM     18  C   UNL     1     125.975 138.116 155.395  1.00  0.00     0.124 A 
ATOM     19  C   UNL     1     125.357 136.889 155.616  1.00  0.00     0.039 A 
ATOM     20  F   UNL     1     125.290 139.246 155.615  1.00  0.00    -0.207 F 
ENDBRANCH   8  13
TORSDOF 2
ENDMDL
