MODEL 1
REMARK VINA RESULT:    -4.691      0.000      0.000
REMARK INTER + INTRA:         -11.368
REMARK INTER:                  -8.805
REMARK INTRA:                  -2.563
REMARK UNBOUND:                -2.563
REMARK SMILES CCCCCCCCCCCCCCCC[N+](C)(C)C
REMARK SMILES IDX 9 1 8 2 7 3 6 4 5 5 4 6 3 7 2 8 1 9 10 10 11 11 12 12 13 13
REMARK SMILES IDX 14 14 15 15 16 16 17 17 18 18 19 19 20 20
REMARK H PARENT
ROOT
ATOM      1  C   UNL     1     133.761 140.072 151.755  1.00  0.00     0.000 C 
ENDROOT
BRANCH   1   2
ATOM      2  C   UNL     1     134.442 139.524 150.498  1.00  0.00    -0.000 C 
BRANCH   2   3
ATOM      3  C   UNL     1     133.612 138.463 149.770  1.00  0.00    -0.000 C 
BRANCH   3   4
ATOM      4  C   UNL     1     134.288 137.100 149.587  1.00  0.00    -0.000 C 
BRANCH   4   5
ATOM      5  C   UNL     1     135.486 136.824 150.502  1.00  0.00    -0.000 C 
BRANCH   5   6
ATOM      6  C   UNL     1     135.110 136.062 151.775  1.00  0.00    -0.000 C 
BRANCH   6   7
ATOM      7  C   UNL     1     133.796 135.285 151.649  1.00  0.00    -0.000 C 
BRANCH   7   8
ATOM      8  C   UNL     1     133.004 135.219 152.956  1.00  0.00    -0.003 C 
ATOM      9  C   UNL     1     131.528 134.955 152.696  1.00  0.00     0.004 C 
ENDBRANCH   7   8
ENDBRANCH   6   7
ENDBRANCH   5   6
ENDBRANCH   4   5
ENDBRANCH   3   4
ENDBRANCH   2   3
ENDBRANCH   1   2
BRANCH   1  10
ATOM     10  C   UNL     1     134.522 139.661 153.018  1.00  0.00     0.000 C 
BRANCH  10  11
ATOM     11  C   UNL     1     133.670 138.860 154.007  1.00  0.00     0.000 C 
BRANCH  11  12
ATOM     12  C   UNL     1     132.195 138.768 153.608  1.00  0.00     0.000 C 
BRANCH  12  13
ATOM     13  C   UNL     1     131.307 138.522 154.831  1.00  0.00     0.000 C 
BRANCH  13  14
ATOM     14  C   UNL     1     129.812 138.447 154.495  1.00  0.00     0.006 C 
BRANCH  14  15
ATOM     15  C   UNL     1     129.181 137.098 154.839  1.00  0.00     0.061 C 
BRANCH  15  16
ATOM     16  C   UNL     1     127.798 136.828 154.235  1.00  0.00     0.263 C 
BRANCH  16  17
ATOM     17  N   UNL     1     126.580 137.016 155.156  1.00  0.00    -0.331 N 
ATOM     18  C   UNL     1     126.923 136.755 156.620  1.00  0.00     0.334 C 
ATOM     19  C   UNL     1     125.944 138.391 155.010  1.00  0.00     0.334 C 
ATOM     20  C   UNL     1     125.533 135.966 154.746  1.00  0.00     0.334 C 
ENDBRANCH  16  17
ENDBRANCH  15  16
ENDBRANCH  14  15
ENDBRANCH  13  14
ENDBRANCH  12  13
ENDBRANCH  11  12
ENDBRANCH  10  11
ENDBRANCH   1  10
TORSDOF 15
ENDMDL
