MODEL 1
REMARK VINA RESULT:    -6.519      0.000      0.000
REMARK INTER + INTRA:         -10.082
REMARK INTER:                  -9.378
REMARK INTRA:                  -0.704
REMARK UNBOUND:                -0.704
REMARK SMILES N[C@@H](CC(=O)N1CCc2c(nc(C(F)(F)F)nc2C(F)(F)F)C1)CN1CC(F)(F)CCC1=O
REMARK SMILES IDX 3 1 2 2 1 3 24 6 25 7 26 8 32 9 27 10 31 11 33 12 30 13
REMARK SMILES IDX 28 14 29 15 4 16 5 17 6 18 7 19 23 20 8 21 10 22 9 23 11 24
REMARK SMILES IDX 18 25 12 26 17 27 19 28 20 29 21 30 22 31 13 32 14 33 15 34
REMARK SMILES IDX 16 35
REMARK H PARENT 1 4 1 5
ROOT
ATOM      1  C   UNL     1     134.407 136.214 151.074  1.00  0.00     0.120 C 
ENDROOT
BRANCH   1   2
ATOM      2  C   UNL     1     134.126 136.288 149.561  1.00  0.00     0.079 C 
BRANCH   2   3
ATOM      3  N   UNL     1     134.126 134.957 148.920  1.00  0.00    -0.326 NA
ATOM      4  H   UNL     1     134.354 135.088 147.926  1.00  0.00     0.119 HD
ATOM      5  H   UNL     1     134.883 134.391 149.299  1.00  0.00     0.119 HD
ENDBRANCH   2   3
BRANCH   2   6
ATOM      6  C   UNL     1     135.096 137.269 148.849  1.00  0.00     0.138 C 
BRANCH   6   7
ATOM      7  N   UNL     1     134.481 137.991 147.730  1.00  0.00    -0.335 N 
ATOM      8  C   UNL     1     133.193 138.652 147.985  1.00  0.00     0.196 C 
ATOM      9  C   UNL     1     135.301 138.362 146.672  1.00  0.00     0.223 C 
ATOM     10  C   UNL     1     132.503 139.207 146.746  1.00  0.00     0.265 C 
ATOM     11  C   UNL     1     134.635 139.058 145.499  1.00  0.00     0.106 C 
ATOM     12  O   UNL     1     136.495 138.070 146.626  1.00  0.00    -0.275 OA
ATOM     13  C   UNL     1     133.489 139.969 145.892  1.00  0.00     0.089 C 
ATOM     14  F   UNL     1     131.484 140.025 147.107  1.00  0.00    -0.205 F 
ATOM     15  F   UNL     1     131.955 138.199 146.022  1.00  0.00    -0.205 F 
ENDBRANCH   6   7
ENDBRANCH   2   6
ENDBRANCH   1   2
BRANCH   1  16
ATOM     16  C   UNL     1     133.380 135.434 151.880  1.00  0.00     0.224 C 
ATOM     17  O   UNL     1     133.272 134.212 151.766  1.00  0.00    -0.275 OA
BRANCH  16  18
ATOM     18  N   UNL     1     132.563 136.160 152.740  1.00  0.00    -0.336 N 
ATOM     19  C   UNL     1     132.892 137.479 153.272  1.00  0.00     0.125 C 
ATOM     20  C   UNL     1     131.141 135.811 152.745  1.00  0.00     0.176 C 
ATOM     21  C   UNL     1     132.371 137.636 154.701  1.00  0.00     0.061 C 
ATOM     22  C   UNL     1     130.351 136.366 153.915  1.00  0.00     0.068 A 
ATOM     23  C   UNL     1     130.925 137.241 154.829  1.00  0.00     0.008 A 
ATOM     24  N   UNL     1     129.061 135.974 153.998  1.00  0.00    -0.227 NA
ATOM     25  C   UNL     1     130.109 137.657 155.881  1.00  0.00     0.152 A 
ATOM     26  C   UNL     1     128.311 136.438 155.023  1.00  0.00     0.235 A 
ATOM     27  N   UNL     1     128.808 137.264 155.971  1.00  0.00    -0.220 NA
BRANCH  25  28
ATOM     28  C   UNL     1     130.648 138.584 156.965  1.00  0.00     0.433 C 
ATOM     29  F   UNL     1     129.660 139.284 157.596  1.00  0.00    -0.165 F 
ATOM     30  F   UNL     1     131.531 139.517 156.516  1.00  0.00    -0.165 F 
ATOM     31  F   UNL     1     131.299 137.901 157.952  1.00  0.00    -0.165 F 
ENDBRANCH  25  28
BRANCH  26  32
ATOM     32  C   UNL     1     126.850 135.973 155.140  1.00  0.00     0.451 C 
ATOM     33  F   UNL     1     126.708 134.613 155.143  1.00  0.00    -0.163 F 
ATOM     34  F   UNL     1     126.246 136.408 156.286  1.00  0.00    -0.163 F 
ATOM     35  F   UNL     1     126.058 136.414 154.116  1.00  0.00    -0.163 F 
ENDBRANCH  26  32
ENDBRANCH  16  18
ENDBRANCH   1  16
TORSDOF 8
ENDMDL
