MODEL 1
REMARK VINA RESULT:    -3.022      0.000      0.000
REMARK INTER + INTRA:          -4.085
REMARK INTER:                  -3.552
REMARK INTRA:                  -0.533
REMARK UNBOUND:                -0.533
REMARK SMILES CN(C)c1nc(N(C)C)nc(N(C)C)n1
REMARK SMILES IDX 4 1 5 2 6 3 10 4 11 5 15 6 2 7 1 8 3 9 7 10 8 11 9 12 12 13
REMARK SMILES IDX 13 14 14 15
REMARK H PARENT
ROOT
ATOM      1  C   UNL     1     129.787 128.235 145.313  1.00  0.00     0.231 A 
ATOM      2  N   UNL     1     129.647 128.411 144.005  1.00  0.00    -0.177 NA
ATOM      3  C   UNL     1     130.414 129.327 143.425  1.00  0.00     0.231 A 
ATOM      4  N   UNL     1     131.298 130.051 144.103  1.00  0.00    -0.177 NA
ATOM      5  C   UNL     1     131.405 129.822 145.405  1.00  0.00     0.231 A 
ATOM      6  N   UNL     1     130.664 128.919 146.036  1.00  0.00    -0.177 NA
ENDROOT
BRANCH   1   7
ATOM      7  N   UNL     1     129.002 127.263 145.948  1.00  0.00    -0.347 N 
ATOM      8  C   UNL     1     127.614 127.241 145.512  1.00  0.00     0.146 C 
ATOM      9  C   UNL     1     129.234 127.156 147.381  1.00  0.00     0.146 C 
ENDBRANCH   1   7
BRANCH   3  10
ATOM     10  N   UNL     1     130.267 129.555 142.051  1.00  0.00    -0.347 N 
ATOM     11  C   UNL     1     131.039 128.655 141.209  1.00  0.00     0.146 C 
ATOM     12  C   UNL     1     130.254 130.958 141.670  1.00  0.00     0.146 C 
ENDBRANCH   3  10
BRANCH   5  13
ATOM     13  N   UNL     1     132.319 130.580 146.150  1.00  0.00    -0.347 N 
ATOM     14  C   UNL     1     132.943 129.856 147.247  1.00  0.00     0.146 C 
ATOM     15  C   UNL     1     133.182 131.437 145.353  1.00  0.00     0.146 C 
ENDBRANCH   5  13
TORSDOF 3
ENDMDL
