MODEL 1
REMARK VINA RESULT:    -4.341      0.000      0.000
REMARK INTER + INTRA:          -8.005
REMARK INTER:                  -6.117
REMARK INTRA:                  -1.889
REMARK UNBOUND:                -1.889
REMARK SMILES CCCN(CC1CC1)c1nc(C)nc(Nc2c(Cl)cc(Cl)cc2Cl)c1Cl
REMARK SMILES IDX 9 1 10 2 11 3 12 4 13 5 14 6 25 7 26 8 4 9 3 10 2 11 1 12
REMARK SMILES IDX 5 13 6 14 7 15 8 16 15 17 16 19 17 20 23 21 19 22 22 23
REMARK SMILES IDX 20 24 18 25 24 26 21 27
REMARK H PARENT 15 18
ROOT
ATOM      1  C   UNL     1     134.687 136.980 148.591  1.00  0.00     0.153 A 
ATOM      2  N   UNL     1     135.951 136.919 148.122  1.00  0.00    -0.215 NA
ATOM      3  C   UNL     1     136.113 136.890 146.790  1.00  0.00     0.130 A 
ATOM      4  C   UNL     1     137.513 136.851 146.263  1.00  0.00     0.090 C 
ATOM      5  N   UNL     1     135.116 136.940 145.895  1.00  0.00    -0.214 NA
ATOM      6  C   UNL     1     133.853 136.983 146.370  1.00  0.00     0.155 A 
ATOM      7  C   UNL     1     133.586 137.000 147.736  1.00  0.00     0.126 A 
ATOM      8  Cl  UNL     1     131.960 137.070 148.328  1.00  0.00    -0.076 Cl
ENDROOT
BRANCH   1   9
ATOM      9  N   UNL     1     134.490 137.022 150.003  1.00  0.00    -0.355 N 
BRANCH   9  10
ATOM     10  C   UNL     1     134.581 135.647 150.532  1.00  0.00     0.118 C 
BRANCH  10  11
ATOM     11  C   UNL     1     134.422 135.663 152.056  1.00  0.00     0.018 C 
ATOM     12  C   UNL     1     132.986 135.384 152.468  1.00  0.00     0.006 C 
ENDBRANCH  10  11
ENDBRANCH   9  10
BRANCH   9  13
ATOM     13  C   UNL     1     135.453 137.957 150.613  1.00  0.00     0.121 C 
BRANCH  13  14
ATOM     14  C   UNL     1     134.799 139.287 150.868  1.00  0.00     0.008 C 
ATOM     15  C   UNL     1     133.355 139.350 151.299  1.00  0.00     0.006 C 
ATOM     16  C   UNL     1     134.441 139.732 152.265  1.00  0.00     0.006 C 
ENDBRANCH  13  14
ENDBRANCH   9  13
ENDBRANCH   1   9
BRANCH   6  17
ATOM     17  N   UNL     1     132.770 136.985 145.442  1.00  0.00    -0.336 N 
ATOM     18  H   UNL     1     131.905 136.997 145.984  1.00  0.00     0.168 HD
BRANCH  17  19
ATOM     19  C   UNL     1     132.687 137.883 144.342  1.00  0.00     0.078 A 
ATOM     20  C   UNL     1     132.926 137.420 143.033  1.00  0.00     0.067 A 
ATOM     21  C   UNL     1     132.295 139.229 144.501  1.00  0.00     0.067 A 
ATOM     22  C   UNL     1     132.786 138.258 141.925  1.00  0.00     0.043 A 
ATOM     23  C   UNL     1     132.153 140.071 143.393  1.00  0.00     0.043 A 
ATOM     24  C   UNL     1     132.395 139.579 142.114  1.00  0.00     0.044 A 
ATOM     25  Cl  UNL     1     133.406 135.779 142.756  1.00  0.00    -0.082 Cl
ATOM     26  Cl  UNL     1     132.042 139.930 146.064  1.00  0.00    -0.082 Cl
ATOM     27  Cl  UNL     1     132.219 140.618 140.754  1.00  0.00    -0.084 Cl
ENDBRANCH  17  19
ENDBRANCH   6  17
TORSDOF 7
ENDMDL
