MODEL 1
REMARK VINA RESULT:    -6.529      0.000      0.000
REMARK INTER + INTRA:          -6.720
REMARK INTER:                  -6.720
REMARK INTRA:                   0.000
REMARK UNBOUND:                 0.000
REMARK SMILES O=C1Nc2ccccc2/C1=C1/Nc2ccccc2/C1=N\O
REMARK SMILES IDX 1 1 2 2 3 3 4 4 5 5 6 6 7 7 8 8 9 9 10 10 11 11 12 12 13 13
REMARK SMILES IDX 14 14 15 15 16 16 17 17 18 18 19 19 20 20 21 23
REMARK H PARENT 3 21 12 22 21 24
ROOT
ATOM      1  O   UNL     1     132.989 139.791 154.775  1.00  0.00    -0.269 OA
ATOM      2  C   UNL     1     133.335 138.974 153.939  1.00  0.00     0.258 C 
ATOM      3  N   UNL     1     134.488 139.014 153.184  1.00  0.00    -0.321 N 
ATOM      4  C   UNL     1     134.535 137.959 152.281  1.00  0.00     0.049 A 
ATOM      5  C   UNL     1     135.541 137.738 151.359  1.00  0.00     0.027 A 
ATOM      6  C   UNL     1     135.403 136.643 150.510  1.00  0.00     0.002 A 
ATOM      7  C   UNL     1     134.272 135.818 150.599  1.00  0.00     0.001 A 
ATOM      8  C   UNL     1     133.266 136.068 151.545  1.00  0.00     0.011 A 
ATOM      9  C   UNL     1     133.400 137.142 152.406  1.00  0.00     0.013 A 
ATOM     10  C   UNL     1     132.596 137.728 153.492  1.00  0.00     0.075 C 
ATOM     11  C   UNL     1     131.450 137.427 154.128  1.00  0.00     0.082 C 
ATOM     12  N   UNL     1     130.856 138.173 155.140  1.00  0.00    -0.352 N 
ATOM     13  C   UNL     1     129.571 137.722 155.389  1.00  0.00     0.048 A 
ATOM     14  C   UNL     1     128.655 138.251 156.278  1.00  0.00     0.027 A 
ATOM     15  C   UNL     1     127.425 137.604 156.429  1.00  0.00     0.002 A 
ATOM     16  C   UNL     1     127.139 136.434 155.706  1.00  0.00     0.001 A 
ATOM     17  C   UNL     1     128.082 135.889 154.829  1.00  0.00     0.013 A 
ATOM     18  C   UNL     1     129.297 136.540 154.689  1.00  0.00     0.029 A 
ATOM     19  C   UNL     1     130.509 136.243 153.875  1.00  0.00     0.136 C 
ATOM     20  N   UNL     1     130.771 135.216 153.133  1.00  0.00    -0.087 NA
ATOM     21  H   UNL     1     135.172 139.750 153.267  1.00  0.00     0.170 HD
ATOM     22  H   UNL     1     131.182 139.118 155.325  1.00  0.00     0.167 HD
ENDROOT
BRANCH  20  23
ATOM     23  O   UNL     1     129.747 134.271 153.104  1.00  0.00    -0.410 OA
ATOM     24  H   UNL     1     130.208 133.454 153.368  1.00  0.00     0.330 HD
ENDBRANCH  20  23
TORSDOF 1
ENDMDL
