MODEL 1
REMARK VINA RESULT:    -3.786      0.000      0.000
REMARK INTER + INTRA:          -5.429
REMARK INTER:                  -4.893
REMARK INTRA:                  -0.537
REMARK UNBOUND:                -0.537
REMARK SMILES O=[P@]1(N(CCCl)CCCl)NCCCO1
REMARK SMILES IDX 3 1 2 2 1 3 10 4 14 5 11 6 13 7 12 8 4 10 5 11 6 12 7 13
REMARK SMILES IDX 8 14 9 15
REMARK H PARENT 10 9
ROOT
ATOM      1  N   UNL     1     131.483 137.248 153.827  1.00  0.00    -0.217 NA
ENDROOT
BRANCH   1   2
ATOM      2  P   UNL     1     130.050 137.120 154.599  1.00  0.00     0.343 P 
ATOM      3  O   UNL     1     129.314 135.833 154.401  1.00  0.00    -0.256 OA
ATOM      4  N   UNL     1     130.374 137.490 156.158  1.00  0.00    -0.232 NA
ATOM      5  O   UNL     1     129.153 138.372 154.120  1.00  0.00    -0.306 OA
ATOM      6  C   UNL     1     129.493 138.445 156.817  1.00  0.00     0.094 C 
ATOM      7  C   UNL     1     127.939 138.587 154.826  1.00  0.00     0.172 C 
ATOM      8  C   UNL     1     128.060 138.283 156.320  1.00  0.00     0.045 C 
ATOM      9  H   UNL     1     131.338 137.746 156.322  1.00  0.00     0.133 HD
ENDBRANCH   1   2
BRANCH   1  10
ATOM     10  C   UNL     1     131.992 138.566 153.437  1.00  0.00     0.111 C 
BRANCH  10  11
ATOM     11  C   UNL     1     133.180 139.021 154.293  1.00  0.00     0.125 C 
ATOM     12  Cl  UNL     1     134.520 139.629 153.286  1.00  0.00    -0.125 Cl
ENDBRANCH  10  11
ENDBRANCH   1  10
BRANCH   1  13
ATOM     13  C   UNL     1     132.565 136.287 154.068  1.00  0.00     0.111 C 
BRANCH  13  14
ATOM     14  C   UNL     1     132.841 135.332 152.900  1.00  0.00     0.125 C 
ATOM     15  Cl  UNL     1     134.457 135.658 152.215  1.00  0.00    -0.125 Cl
ENDBRANCH  13  14
ENDBRANCH   1  13
TORSDOF 5
ENDMDL
