MODEL 1
REMARK VINA RESULT:    -3.978      0.000      0.000
REMARK INTER + INTRA:          -6.076
REMARK INTER:                  -5.024
REMARK INTRA:                  -1.052
REMARK UNBOUND:                -1.052
REMARK SMILES OC[C@@H](O)[C@H]1O[C@@H]2O[C@H](C(Cl)(Cl)Cl)O[C@@H]2[C@H]1O
REMARK SMILES IDX 3 1 2 2 1 3 4 5 5 7 6 8 16 9 7 10 15 11 8 12 14 13 9 14
REMARK SMILES IDX 17 15 10 17 11 18 12 19 13 20
REMARK H PARENT 1 4 4 6 17 16
ROOT
ATOM      1  C   UNL     1     134.604 137.354 152.042  1.00  0.00     0.171 C 
ENDROOT
BRANCH   1   2
ATOM      2  C   UNL     1     135.328 136.123 151.480  1.00  0.00     0.190 C 
BRANCH   2   3
ATOM      3  O   UNL     1     134.948 134.934 152.161  1.00  0.00    -0.394 OA
ATOM      4  H   UNL     1     135.436 134.898 153.002  1.00  0.00     0.210 HD
ENDBRANCH   2   3
ENDBRANCH   1   2
BRANCH   1   5
ATOM      5  O   UNL     1     134.842 138.507 151.224  1.00  0.00    -0.388 OA
ATOM      6  H   UNL     1     133.990 138.767 150.831  1.00  0.00     0.211 HD
ENDBRANCH   1   5
BRANCH   1   7
ATOM      7  C   UNL     1     133.090 137.133 152.262  1.00  0.00     0.184 C 
ATOM      8  O   UNL     1     132.931 136.231 153.390  1.00  0.00    -0.341 OA
ATOM      9  C   UNL     1     132.238 138.351 152.621  1.00  0.00     0.180 C 
ATOM     10  C   UNL     1     132.568 137.009 154.532  1.00  0.00     0.285 C 
ATOM     11  C   UNL     1     132.425 138.454 154.123  1.00  0.00     0.209 C 
ATOM     12  O   UNL     1     131.274 136.641 154.996  1.00  0.00    -0.316 OA
ATOM     13  O   UNL     1     131.261 138.971 154.771  1.00  0.00    -0.337 OA
ATOM     14  C   UNL     1     130.706 137.859 155.506  1.00  0.00     0.305 C 
BRANCH   9  15
ATOM     15  O   UNL     1     132.567 139.557 151.952  1.00  0.00    -0.387 OA
ATOM     16  H   UNL     1     132.388 139.410 151.004  1.00  0.00     0.211 HD
ENDBRANCH   9  15
BRANCH  14  17
ATOM     17  C   UNL     1     129.147 137.847 155.513  1.00  0.00     0.241 C 
ATOM     18  Cl  UNL     1     128.526 138.294 157.143  1.00  0.00    -0.078 Cl
ATOM     19  Cl  UNL     1     128.525 136.205 155.124  1.00  0.00    -0.078 Cl
ATOM     20  Cl  UNL     1     128.477 139.009 154.320  1.00  0.00    -0.078 Cl
ENDBRANCH  14  17
ENDBRANCH   1   7
TORSDOF 6
ENDMDL
