MODEL 1
REMARK VINA RESULT:    -4.793      0.000      0.000
REMARK INTER + INTRA:          -5.510
REMARK INTER:                  -5.634
REMARK INTRA:                   0.124
REMARK UNBOUND:                 0.124
REMARK SMILES Nc1ncnc2c1ncn2[C@@H]1O[C@H](CO)C[C@@H]1F
REMARK SMILES IDX 11 1 12 2 13 3 16 4 17 5 18 6 10 7 2 8 3 9 7 10 4 11 6 12
REMARK SMILES IDX 8 13 5 14 9 15 1 16 14 19 15 20
REMARK H PARENT 1 17 1 18 15 21
ROOT
ATOM      1  C   UNL     1     134.624 135.869 151.271  1.00  0.00     0.256 C 
ATOM      2  O   UNL     1     135.839 136.650 151.344  1.00  0.00    -0.349 OA
ATOM      3  C   UNL     1     136.066 137.263 150.054  1.00  0.00     0.149 C 
ATOM      4  C   UNL     1     135.160 136.527 149.076  1.00  0.00     0.077 C 
ATOM      5  C   UNL     1     133.969 136.191 149.934  1.00  0.00     0.219 C 
ATOM      6  F   UNL     1     133.196 137.310 150.027  1.00  0.00    -0.242 F 
ENDROOT
BRANCH   1   7
ATOM      7  N   UNL     1     133.788 136.128 152.419  1.00  0.00    -0.285 N 
ATOM      8  C   UNL     1     132.587 138.216 154.956  1.00  0.00     0.155 A 
ATOM      9  N   UNL     1     133.282 139.359 154.750  1.00  0.00    -0.217 NA
ATOM     10  C   UNL     1     132.821 137.126 154.103  1.00  0.00     0.150 A 
ATOM     11  C   UNL     1     134.150 139.404 153.715  1.00  0.00     0.226 A 
ATOM     12  C   UNL     1     133.745 137.319 153.089  1.00  0.00     0.167 A 
ATOM     13  N   UNL     1     132.315 135.842 154.065  1.00  0.00    -0.231 NA
ATOM     14  N   UNL     1     134.451 138.433 152.827  1.00  0.00    -0.216 NA
ATOM     15  C   UNL     1     132.912 135.276 153.035  1.00  0.00     0.204 A 
BRANCH   8  16
ATOM     16  N   UNL     1     131.691 138.174 156.017  1.00  0.00    -0.382 N 
ATOM     17  H   UNL     1     130.830 137.687 155.794  1.00  0.00     0.158 HD
ATOM     18  H   UNL     1     132.145 137.957 156.893  1.00  0.00     0.158 HD
ENDBRANCH   8  16
ENDBRANCH   1   7
BRANCH   3  19
ATOM     19  C   UNL     1     135.764 138.767 150.145  1.00  0.00     0.188 C 
BRANCH  19  20
ATOM     20  O   UNL     1     136.990 139.499 150.140  1.00  0.00    -0.394 OA
ATOM     21  H   UNL     1     137.202 139.698 149.212  1.00  0.00     0.210 HD
ENDBRANCH  19  20
ENDBRANCH   3  19
TORSDOF 4
ENDMDL
