MODEL 1
REMARK VINA RESULT:    -3.386      0.000      0.000
REMARK INTER + INTRA:          -3.961
REMARK INTER:                  -3.782
REMARK INTRA:                  -0.179
REMARK UNBOUND:                -0.179
REMARK SMILES Cl/C=C\C[N+]12CN3CN(CN(C3)C1)C2
REMARK SMILES IDX 1 1 2 2 3 3 4 4 5 5 14 6 13 7 6 8 9 9 11 10 7 11 8 12 10 13
REMARK SMILES IDX 12 14
REMARK H PARENT
ROOT
ATOM      1  Cl  UNL     1     126.240 139.150 154.683  1.00  0.00    -0.093 Cl
ATOM      2  C   UNL     1     127.298 138.310 155.733  1.00  0.00     0.081 C 
ATOM      3  C   UNL     1     128.615 138.174 155.540  1.00  0.00     0.046 C 
ENDROOT
BRANCH   3   4
ATOM      4  C   UNL     1     129.400 138.656 154.359  1.00  0.00     0.296 C 
BRANCH   4   5
ATOM      5  N   UNL     1     130.848 138.207 154.294  1.00  0.00    -0.283 N 
ATOM      6  C   UNL     1     131.584 138.734 155.482  1.00  0.00     0.363 C 
ATOM      7  C   UNL     1     131.554 138.705 153.084  1.00  0.00     0.363 C 
ATOM      8  C   UNL     1     130.983 136.723 154.322  1.00  0.00     0.363 C 
ATOM      9  N   UNL     1     132.965 138.326 155.461  1.00  0.00    -0.230 NA
ATOM     10  N   UNL     1     132.936 138.294 153.088  1.00  0.00    -0.230 NA
ATOM     11  N   UNL     1     132.374 136.337 154.311  1.00  0.00    -0.230 NA
ATOM     12  C   UNL     1     133.046 136.874 155.482  1.00  0.00     0.185 C 
ATOM     13  C   UNL     1     133.610 138.830 154.260  1.00  0.00     0.185 C 
ATOM     14  C   UNL     1     133.017 136.841 153.109  1.00  0.00     0.185 C 
ENDBRANCH   4   5
ENDBRANCH   3   4
TORSDOF 2
ENDMDL
