MODEL 1
REMARK VINA RESULT:    -5.534      0.000      0.000
REMARK INTER + INTRA:          -9.012
REMARK INTER:                  -8.122
REMARK INTRA:                  -0.890
REMARK UNBOUND:                -0.890
REMARK SMILES CCC(CC)[C@H](NC(C)=O)[C@@H]1[C@H](O)[C@@H](C(=O)O)C[C@H]1NC(=N)N
REMARK SMILES IDX 11 1 12 2 14 3 18 4 19 5 6 6 3 7 2 8 1 9 4 10 5 11 7 12 8 13
REMARK SMILES IDX 10 14 9 16 13 17 20 19 21 20 22 21 23 22 15 27 16 28 17 29
REMARK H PARENT 7 15 13 18 20 23 22 24 23 25 23 26 17 30
ROOT
ATOM      1  C   UNL     1     133.191 136.694 151.328  1.00  0.00     0.064 C 
ATOM      2  C   UNL     1     134.038 135.429 151.080  1.00  0.00     0.136 C 
ATOM      3  C   UNL     1     134.950 135.840 149.926  1.00  0.00     0.130 C 
ATOM      4  C   UNL     1     135.361 137.266 150.297  1.00  0.00     0.043 C 
ATOM      5  C   UNL     1     134.144 137.870 151.019  1.00  0.00     0.090 C 
ENDROOT
BRANCH   1   6
ATOM      6  C   UNL     1     132.422 136.807 152.672  1.00  0.00     0.092 C 
BRANCH   6   7
ATOM      7  C   UNL     1     133.225 137.529 153.816  1.00  0.00     0.011 C 
BRANCH   7   8
ATOM      8  C   UNL     1     133.148 139.076 153.767  1.00  0.00     0.002 C 
ATOM      9  C   UNL     1     134.493 139.788 153.775  1.00  0.00     0.004 C 
ENDBRANCH   7   8
BRANCH   7  10
ATOM     10  C   UNL     1     132.792 136.977 155.204  1.00  0.00     0.002 C 
ATOM     11  C   UNL     1     131.813 137.865 155.962  1.00  0.00     0.004 C 
ENDBRANCH   7  10
ENDBRANCH   6   7
BRANCH   6  12
ATOM     12  N   UNL     1     131.977 135.501 153.169  1.00  0.00    -0.353 N 
ATOM     13  C   UNL     1     131.013 134.742 152.553  1.00  0.00     0.217 C 
ATOM     14  O   UNL     1     130.505 135.052 151.478  1.00  0.00    -0.275 OA
ATOM     15  H   UNL     1     132.417 135.140 154.008  1.00  0.00     0.163 HD
ATOM     16  C   UNL     1     130.671 133.465 153.269  1.00  0.00     0.114 C 
ENDBRANCH   6  12
ENDBRANCH   1   6
BRANCH   2  17
ATOM     17  O   UNL     1     134.867 135.061 152.171  1.00  0.00    -0.392 OA
ATOM     18  H   UNL     1     134.955 134.083 152.161  1.00  0.00     0.210 HD
ENDBRANCH   2  17
BRANCH   5  19
ATOM     19  N   UNL     1     133.470 138.821 150.141  1.00  0.00    -0.354 N 
ATOM     20  C   UNL     1     134.088 139.933 149.681  1.00  0.00     0.185 C 
ATOM     21  N   UNL     1     135.199 140.394 150.122  1.00  0.00    -0.270 NA
ATOM     22  N   UNL     1     133.375 140.528 148.706  1.00  0.00    -0.370 N 
ATOM     23  H   UNL     1     132.869 138.366 149.453  1.00  0.00     0.163 HD
ATOM     24  H   UNL     1     135.454 141.228 149.592  1.00  0.00     0.191 HD
ATOM     25  H   UNL     1     133.635 141.485 148.510  1.00  0.00     0.159 HD
ATOM     26  H   UNL     1     132.374 140.440 148.835  1.00  0.00     0.159 HD
ENDBRANCH   5  19
BRANCH   3  27
ATOM     27  C   UNL     1     134.215 135.793 148.610  1.00  0.00     0.309 C 
ATOM     28  O   UNL     1     133.894 136.746 147.918  1.00  0.00    -0.252 OA
BRANCH  27  29
ATOM     29  O   UNL     1     133.894 134.539 148.242  1.00  0.00    -0.481 OA
ATOM     30  H   UNL     1     134.611 134.260 147.634  1.00  0.00     0.296 HD
ENDBRANCH  27  29
ENDBRANCH   3  27
TORSDOF 9
ENDMDL
