MODEL 1
REMARK VINA RESULT:    -5.621      0.000      0.000
REMARK INTER + INTRA:          -9.742
REMARK INTER:                  -8.578
REMARK INTRA:                  -1.163
REMARK UNBOUND:                -1.163
REMARK SMILES CC(/C=C/C=C(\C)C(=O)O)=C\C=C\C=C(C)\C=C\C=C(/C)C(=O)O
REMARK SMILES IDX 12 1 13 2 11 3 2 4 1 5 3 6 4 7 5 8 6 9 7 10 8 11 9 12 10 13
REMARK SMILES IDX 14 15 15 16 16 17 17 18 18 19 19 20 20 21 21 22 22 23 23 24
REMARK SMILES IDX 24 25
REMARK H PARENT 10 14 24 26
ROOT
ATOM      1  C   UNL     1     135.470 137.515 150.871  1.00  0.00     0.000 C 
ATOM      2  C   UNL     1     134.832 136.548 151.553  1.00  0.00     0.000 C 
ENDROOT
BRANCH   1   3
ATOM      3  C   UNL     1     136.211 137.253 149.653  1.00  0.00     0.003 C 
ATOM      4  C   UNL     1     135.865 137.587 148.390  1.00  0.00    -0.051 C 
ATOM      5  C   UNL     1     134.600 138.318 148.013  1.00  0.00     0.044 C 
BRANCH   4   6
ATOM      6  C   UNL     1     136.779 137.217 147.303  1.00  0.00     0.003 C 
ATOM      7  C   UNL     1     136.438 136.720 146.102  1.00  0.00     0.001 C 
BRANCH   7   8
ATOM      8  C   UNL     1     137.423 136.384 145.090  1.00  0.00     0.011 C 
ATOM      9  C   UNL     1     137.341 135.394 144.179  1.00  0.00     0.034 C 
ATOM     10  C   UNL     1     136.210 134.419 144.012  1.00  0.00     0.052 C 
BRANCH   9  11
ATOM     11  C   UNL     1     138.445 135.182 143.205  1.00  0.00     0.331 C 
ATOM     12  O   UNL     1     138.316 135.155 141.993  1.00  0.00    -0.247 OA
BRANCH  11  13
ATOM     13  O   UNL     1     139.654 135.014 143.766  1.00  0.00    -0.478 OA
ATOM     14  H   UNL     1     140.108 134.401 143.150  1.00  0.00     0.297 HD
ENDBRANCH  11  13
ENDBRANCH   9  11
ENDBRANCH   7   8
ENDBRANCH   4   6
ENDBRANCH   1   3
BRANCH   2  15
ATOM     15  C   UNL     1     134.091 136.809 152.772  1.00  0.00     0.003 C 
ATOM     16  C   UNL     1     133.046 136.111 153.266  1.00  0.00    -0.051 C 
ATOM     17  C   UNL     1     132.443 134.892 152.612  1.00  0.00     0.044 C 
BRANCH  16  18
ATOM     18  C   UNL     1     132.448 136.564 154.528  1.00  0.00     0.003 C 
ATOM     19  C   UNL     1     132.183 137.833 154.882  1.00  0.00     0.001 C 
BRANCH  19  20
ATOM     20  C   UNL     1     131.588 138.176 156.159  1.00  0.00     0.011 C 
ATOM     21  C   UNL     1     130.278 138.365 156.415  1.00  0.00     0.034 C 
ATOM     22  C   UNL     1     129.142 138.266 155.442  1.00  0.00     0.052 C 
BRANCH  21  23
ATOM     23  C   UNL     1     129.941 138.709 157.823  1.00  0.00     0.331 C 
ATOM     24  O   UNL     1     129.339 139.694 158.210  1.00  0.00    -0.247 OA
BRANCH  23  25
ATOM     25  O   UNL     1     130.382 137.787 158.694  1.00  0.00    -0.478 OA
ATOM     26  H   UNL     1     130.079 136.941 158.304  1.00  0.00     0.297 HD
ENDBRANCH  23  25
ENDBRANCH  21  23
ENDBRANCH  19  20
ENDBRANCH  16  18
ENDBRANCH   2  15
TORSDOF 10
ENDMDL
