MODEL 1
REMARK VINA RESULT:    -4.062      0.000      0.000
REMARK INTER + INTRA:          -5.737
REMARK INTER:                  -5.250
REMARK INTRA:                  -0.487
REMARK UNBOUND:                -0.487
REMARK SMILES CSC(=N)C(C#N)C(C#N)C(=N)SC
REMARK SMILES IDX 5 1 6 2 7 3 3 4 4 5 2 7 1 8 8 9 9 10 10 11 11 12 12 13 13 15
REMARK SMILES IDX 14 16
REMARK H PARENT 4 6 12 14
ROOT
ATOM      1  C   UNL     1     133.946 138.821 151.878  1.00  0.00     0.171 C 
ATOM      2  C   UNL     1     134.044 140.201 151.372  1.00  0.00     0.074 C 
ATOM      3  N   UNL     1     134.067 141.269 150.919  1.00  0.00    -0.198 NA
ENDROOT
BRANCH   1   4
ATOM      4  C   UNL     1     133.633 138.743 153.357  1.00  0.00     0.083 C 
ATOM      5  N   UNL     1     134.517 139.038 154.253  1.00  0.00    -0.297 NA
ATOM      6  H   UNL     1     134.075 138.895 155.174  1.00  0.00     0.188 HD
BRANCH   4   7
ATOM      7  S   UNL     1     132.110 138.133 153.954  1.00  0.00    -0.114 SA
ATOM      8  C   UNL     1     132.701 137.174 155.365  1.00  0.00     0.092 C 
ENDBRANCH   4   7
ENDBRANCH   1   4
BRANCH   1   9
ATOM      9  C   UNL     1     135.187 137.974 151.545  1.00  0.00     0.171 C 
ATOM     10  C   UNL     1     134.904 136.543 151.720  1.00  0.00     0.074 C 
ATOM     11  N   UNL     1     134.686 135.415 151.888  1.00  0.00    -0.198 NA
BRANCH   9  12
ATOM     12  C   UNL     1     135.730 138.225 150.156  1.00  0.00     0.083 C 
ATOM     13  N   UNL     1     136.770 138.951 149.920  1.00  0.00    -0.297 NA
ATOM     14  H   UNL     1     136.953 138.934 148.908  1.00  0.00     0.188 HD
BRANCH  12  15
ATOM     15  S   UNL     1     134.926 137.470 148.800  1.00  0.00    -0.114 SA
ATOM     16  C   UNL     1     136.365 137.153 147.750  1.00  0.00     0.092 C 
ENDBRANCH  12  15
ENDBRANCH   9  12
ENDBRANCH   1   9
TORSDOF 5
ENDMDL
