MODEL 1
REMARK VINA RESULT:    -5.674      0.000      0.000
REMARK INTER + INTRA:          -7.756
REMARK INTER:                  -7.001
REMARK INTRA:                  -0.755
REMARK UNBOUND:                -0.755
REMARK SMILES N=C(N)Nc1ccc2[nH]c3c(c2c1)C[C@@]1(O)[C@H]2Cc4ccc(O)c5c4[C@@]1(CCN2CC1CC1)[C@H]3O5
REMARK SMILES IDX 5 1 6 2 7 3 8 4 9 5 10 6 11 7 12 8 13 9 14 10 15 11 17 12
REMARK SMILES IDX 18 13 19 14 20 15 21 16 22 17 24 18 25 19 26 20 27 21 28 22
REMARK SMILES IDX 29 23 34 24 35 25 4 27 1 28 2 29 3 30 16 35 30 37 31 38
REMARK SMILES IDX 32 39 33 40 23 41
REMARK H PARENT 9 26 1 31 3 32 3 33 4 34 16 36 23 42
ROOT
ATOM      1  C   UNL     1     133.387 137.692 151.913  1.00  0.00     0.042 A 
ATOM      2  C   UNL     1     133.767 136.363 152.167  1.00  0.00     0.028 A 
ATOM      3  C   UNL     1     134.106 135.466 151.143  1.00  0.00     0.029 A 
ATOM      4  C   UNL     1     134.033 135.933 149.829  1.00  0.00     0.046 A 
ATOM      5  N   UNL     1     134.315 135.294 148.642  1.00  0.00    -0.355 N 
ATOM      6  C   UNL     1     134.072 136.139 147.596  1.00  0.00     0.061 A 
ATOM      7  C   UNL     1     133.679 137.361 148.105  1.00  0.00    -0.012 A 
ATOM      8  C   UNL     1     133.638 137.235 149.522  1.00  0.00     0.005 A 
ATOM      9  C   UNL     1     133.306 138.112 150.578  1.00  0.00     0.036 A 
ATOM     10  C   UNL     1     133.406 138.555 147.242  1.00  0.00     0.076 C 
ATOM     11  C   UNL     1     133.060 138.120 145.783  1.00  0.00     0.098 C 
ATOM     12  C   UNL     1     133.228 139.301 144.743  1.00  0.00     0.094 C 
ATOM     13  C   UNL     1     134.695 139.853 144.716  1.00  0.00     0.058 C 
ATOM     14  C   UNL     1     135.747 138.778 144.827  1.00  0.00    -0.038 A 
ATOM     15  C   UNL     1     137.120 139.027 144.772  1.00  0.00     0.008 A 
ATOM     16  C   UNL     1     138.046 137.998 145.050  1.00  0.00     0.050 A 
ATOM     17  C   UNL     1     137.604 136.724 145.428  1.00  0.00     0.158 A 
ATOM     18  C   UNL     1     136.248 136.492 145.486  1.00  0.00     0.166 A 
ATOM     19  C   UNL     1     135.355 137.483 145.129  1.00  0.00     0.015 A 
ATOM     20  C   UNL     1     133.948 136.980 145.228  1.00  0.00     0.074 C 
ATOM     21  C   UNL     1     133.465 136.519 143.829  1.00  0.00     0.035 C 
ATOM     22  C   UNL     1     132.537 137.526 143.128  1.00  0.00     0.086 C 
ATOM     23  N   UNL     1     132.928 138.913 143.338  1.00  0.00    -0.297 NA
ATOM     24  C   UNL     1     134.240 135.774 146.153  1.00  0.00     0.234 C 
ATOM     25  O   UNL     1     135.622 135.357 145.949  1.00  0.00    -0.479 OA
ATOM     26  H   UNL     1     134.669 134.350 148.560  1.00  0.00     0.166 HD
ENDROOT
BRANCH   1  27
ATOM     27  N   UNL     1     133.017 138.501 153.010  1.00  0.00    -0.327 N 
ATOM     28  N   UNL     1     135.002 139.706 153.539  1.00  0.00    -0.269 NA
ATOM     29  C   UNL     1     133.766 139.400 153.704  1.00  0.00     0.190 C 
ATOM     30  N   UNL     1     133.029 139.999 154.673  1.00  0.00    -0.370 N 
ATOM     31  H   UNL     1     135.295 140.391 154.234  1.00  0.00     0.191 HD
ATOM     32  H   UNL     1     133.465 140.816 155.082  1.00  0.00     0.159 HD
ATOM     33  H   UNL     1     132.089 140.226 154.367  1.00  0.00     0.159 HD
ATOM     34  H   UNL     1     132.262 138.103 153.551  1.00  0.00     0.170 HD
ENDBRANCH   1  27
BRANCH  11  35
ATOM     35  O   UNL     1     131.673 137.699 145.808  1.00  0.00    -0.387 OA
ATOM     36  H   UNL     1     131.452 137.462 146.727  1.00  0.00     0.211 HD
ENDBRANCH  11  35
BRANCH  23  37
ATOM     37  C   UNL     1     132.128 139.883 142.594  1.00  0.00     0.088 C 
BRANCH  37  38
ATOM     38  C   UNL     1     131.164 140.679 143.426  1.00  0.00     0.003 C 
ATOM     39  C   UNL     1     130.830 142.111 143.087  1.00  0.00     0.005 C 
ATOM     40  C   UNL     1     129.811 141.033 142.856  1.00  0.00     0.005 C 
ENDBRANCH  37  38
ENDBRANCH  23  37
BRANCH  17  41
ATOM     41  O   UNL     1     138.481 135.738 145.761  1.00  0.00    -0.504 OA
ATOM     42  H   UNL     1     138.287 134.956 145.220  1.00  0.00     0.293 HD
ENDBRANCH  17  41
TORSDOF 5
ENDMDL
