MODEL 1
REMARK VINA RESULT:    -4.511      0.000      0.000
REMARK INTER + INTRA:          -6.130
REMARK INTER:                  -5.829
REMARK INTRA:                  -0.300
REMARK UNBOUND:                -0.300
REMARK SMILES NC(=O)CCCC[C@H]1CCSS1
REMARK SMILES IDX 5 1 4 2 2 3 1 4 3 5 6 8 7 9 8 10 9 11 12 12 10 13 11 14
REMARK H PARENT 1 6 1 7
ROOT
ATOM      1  C   UNL     1     133.963 137.652 153.105  1.00  0.00     0.010 C 
ENDROOT
BRANCH   1   2
ATOM      2  C   UNL     1     133.336 136.825 151.984  1.00  0.00     0.100 C 
BRANCH   2   3
ATOM      3  C   UNL     1     133.709 135.357 152.020  1.00  0.00     0.217 C 
ATOM      4  N   UNL     1     135.049 135.127 152.136  1.00  0.00    -0.370 N 
ATOM      5  O   UNL     1     132.918 134.425 151.951  1.00  0.00    -0.275 OA
ATOM      6  H   UNL     1     135.732 135.849 151.947  1.00  0.00     0.159 HD
ATOM      7  H   UNL     1     135.349 134.163 152.067  1.00  0.00     0.159 HD
ENDBRANCH   2   3
ENDBRANCH   1   2
BRANCH   1   8
ATOM      8  C   UNL     1     133.123 138.835 153.608  1.00  0.00     0.002 C 
BRANCH   8   9
ATOM      9  C   UNL     1     131.611 138.605 153.513  1.00  0.00     0.015 C 
BRANCH   9  10
ATOM     10  C   UNL     1     131.001 138.047 154.807  1.00  0.00     0.059 C 
ATOM     11  C   UNL     1     131.575 138.749 156.044  1.00  0.00     0.027 C 
ATOM     12  S   UNL     1     129.197 138.298 154.892  1.00  0.00    -0.091 SA
ATOM     13  C   UNL     1     130.814 138.310 157.289  1.00  0.00     0.083 C 
ATOM     14  S   UNL     1     129.054 138.513 156.925  1.00  0.00    -0.094 SA
ENDBRANCH   9  10
ENDBRANCH   8   9
ENDBRANCH   1   8
TORSDOF 5
ENDMDL
