MODEL 1
REMARK VINA RESULT:    -6.101      0.000      0.000
REMARK INTER + INTRA:          -6.512
REMARK INTER:                  -6.815
REMARK INTRA:                   0.303
REMARK UNBOUND:                 0.303
REMARK SMILES CC(C)(C)[C@]1(O)C[C@@H]2OC(=O)C[C@@]23C(=O)O[C@@H]2OC(=O)[C@H](O)[C@]213
REMARK SMILES IDX 5 1 7 2 8 3 9 4 10 5 11 6 12 7 13 8 14 9 15 10 16 11 17 12
REMARK SMILES IDX 18 13 19 14 20 15 21 16 23 17 2 18 1 19 3 20 4 21 6 22 22 24
REMARK H PARENT 6 23 22 25
ROOT
ATOM      1  C   UNL     1     132.524 137.535 154.291  1.00  0.00     0.090 C 
ATOM      2  C   UNL     1     133.363 138.845 154.371  1.00  0.00     0.083 C 
ATOM      3  C   UNL     1     134.460 138.753 153.315  1.00  0.00     0.198 C 
ATOM      4  O   UNL     1     134.703 140.038 152.753  1.00  0.00    -0.461 OA
ATOM      5  C   UNL     1     134.001 140.175 151.589  1.00  0.00     0.307 C 
ATOM      6  O   UNL     1     133.937 141.213 150.951  1.00  0.00    -0.252 OA
ATOM      7  C   UNL     1     133.260 138.911 151.261  1.00  0.00     0.146 C 
ATOM      8  C   UNL     1     133.873 137.910 152.215  1.00  0.00     0.134 C 
ATOM      9  C   UNL     1     134.952 137.085 151.561  1.00  0.00     0.320 C 
ATOM     10  O   UNL     1     135.765 137.497 150.751  1.00  0.00    -0.251 OA
ATOM     11  O   UNL     1     134.925 135.811 152.030  1.00  0.00    -0.424 OA
ATOM     12  C   UNL     1     134.016 135.752 153.126  1.00  0.00     0.383 C 
ATOM     13  O   UNL     1     133.316 134.518 153.154  1.00  0.00    -0.422 OA
ATOM     14  C   UNL     1     132.141 134.685 152.502  1.00  0.00     0.339 C 
ATOM     15  O   UNL     1     131.347 133.790 152.254  1.00  0.00    -0.249 OA
ATOM     16  C   UNL     1     131.980 136.126 152.059  1.00  0.00     0.242 C 
ATOM     17  C   UNL     1     132.990 136.879 152.920  1.00  0.00     0.131 C 
ENDROOT
BRANCH   1  18
ATOM     18  C   UNL     1     130.988 137.826 154.613  1.00  0.00    -0.008 C 
ATOM     19  C   UNL     1     130.819 138.332 156.082  1.00  0.00     0.014 C 
ATOM     20  C   UNL     1     130.121 136.545 154.547  1.00  0.00     0.014 C 
ATOM     21  C   UNL     1     130.359 138.920 153.724  1.00  0.00     0.014 C 
ENDBRANCH   1  18
BRANCH   1  22
ATOM     22  O   UNL     1     133.010 136.682 155.337  1.00  0.00    -0.388 OA
ATOM     23  H   UNL     1     133.928 136.411 155.156  1.00  0.00     0.211 HD
ENDBRANCH   1  22
BRANCH  16  24
ATOM     24  O   UNL     1     132.273 136.255 150.674  1.00  0.00    -0.380 OA
ATOM     25  H   UNL     1     131.519 136.723 150.260  1.00  0.00     0.211 HD
ENDBRANCH  16  24
TORSDOF 3
ENDMDL
