MODEL 1
REMARK VINA RESULT:    -6.455      0.000      0.000
REMARK INTER + INTRA:          -8.656
REMARK INTER:                  -7.965
REMARK INTRA:                  -0.691
REMARK UNBOUND:                -0.691
REMARK SMILES N#C[C@@H]1C[C@@H]2C[C@@H]2N1C(=O)[C@@H](N)[C@@]12C[C@@H]3C[C@@H](C[C@@](O)(C3)C1)C2
REMARK SMILES IDX 13 1 14 2 15 3 16 4 17 5 18 6 19 7 21 8 22 9 23 10 11 11
REMARK SMILES IDX 9 12 10 13 8 14 1 15 2 16 3 17 4 18 5 19 7 20 6 21 12 22
REMARK SMILES IDX 20 25
REMARK H PARENT 12 23 12 24 20 26
ROOT
ATOM      1  C   UNL     1     133.172 137.963 152.625  1.00  0.00    -0.002 C 
ATOM      2  C   UNL     1     134.683 138.364 152.634  1.00  0.00     0.013 C 
ATOM      3  C   UNL     1     135.409 137.858 151.376  1.00  0.00    -0.007 C 
ATOM      4  C   UNL     1     134.748 138.460 150.127  1.00  0.00     0.007 C 
ATOM      5  C   UNL     1     133.270 138.050 150.069  1.00  0.00    -0.007 C 
ATOM      6  C   UNL     1     133.165 136.519 150.021  1.00  0.00     0.039 C 
ATOM      7  C   UNL     1     133.827 135.908 151.266  1.00  0.00     0.066 C 
ATOM      8  C   UNL     1     135.305 136.328 151.319  1.00  0.00     0.039 C 
ATOM      9  C   UNL     1     133.107 136.415 152.530  1.00  0.00     0.044 C 
ATOM     10  C   UNL     1     132.551 138.566 151.328  1.00  0.00     0.013 C 
ENDROOT
BRANCH   1  11
ATOM     11  C   UNL     1     132.460 138.553 153.890  1.00  0.00     0.147 C 
BRANCH  11  12
ATOM     12  C   UNL     1     131.771 137.497 154.803  1.00  0.00     0.241 C 
ATOM     13  O   UNL     1     132.405 136.766 155.566  1.00  0.00    -0.273 OA
BRANCH  12  14
ATOM     14  N   UNL     1     130.391 137.441 154.761  1.00  0.00    -0.322 N 
ATOM     15  N   UNL     1     129.540 138.166 158.047  1.00  0.00    -0.196 NA
ATOM     16  C   UNL     1     129.572 138.306 156.893  1.00  0.00     0.087 C 
ATOM     17  C   UNL     1     129.567 138.469 155.422  1.00  0.00     0.189 C 
ATOM     18  C   UNL     1     128.137 138.274 154.861  1.00  0.00     0.046 C 
ATOM     19  C   UNL     1     128.143 136.954 154.134  1.00  0.00     0.017 C 
ATOM     20  C   UNL     1     129.572 136.493 154.063  1.00  0.00     0.090 C 
ATOM     21  C   UNL     1     128.550 135.658 154.782  1.00  0.00     0.031 C 
ENDBRANCH  12  14
ENDBRANCH  11  12
BRANCH  11  22
ATOM     22  N   UNL     1     133.354 139.363 154.750  1.00  0.00    -0.319 NA
ATOM     23  H   UNL     1     133.026 140.324 154.791  1.00  0.00     0.119 HD
ATOM     24  H   UNL     1     134.276 139.403 154.308  1.00  0.00     0.119 HD
ENDBRANCH  11  22
ENDBRANCH   1  11
BRANCH   7  25
ATOM     25  O   UNL     1     133.740 134.491 151.224  1.00  0.00    -0.390 OA
ATOM     26  H   UNL     1     133.555 134.174 152.124  1.00  0.00     0.211 HD
ENDBRANCH   7  25
TORSDOF 5
ENDMDL
