MODEL 1
REMARK VINA RESULT:    -6.203      0.000      0.000
REMARK INTER + INTRA:          -8.365
REMARK INTER:                  -7.653
REMARK INTRA:                  -0.712
REMARK UNBOUND:                -0.712
REMARK SMILES C/C(=N\NC(=S)NNC(=S)Nc1ccccc1Cl)c1ccccn1
REMARK SMILES IDX 4 1 5 2 6 3 7 4 3 7 2 8 1 9 19 10 20 11 24 12 21 13 23 14
REMARK SMILES IDX 22 15 8 16 9 17 10 18 11 19 12 22 13 23 17 24 14 25 16 26
REMARK SMILES IDX 15 27 18 28
REMARK H PARENT 4 5 7 6 8 20 11 21
ROOT
ATOM      1  N   UNL     1     133.520 134.834 145.698  1.00  0.00    -0.252 N 
ATOM      2  C   UNL     1     133.217 136.046 146.279  1.00  0.00     0.205 C 
ATOM      3  S   UNL     1     133.543 137.475 145.476  1.00  0.00    -0.038 S 
ATOM      4  N   UNL     1     132.621 135.937 147.515  1.00  0.00    -0.273 N 
ATOM      5  H   UNL     1     133.958 134.843 144.783  1.00  0.00     0.193 HD
ATOM      6  H   UNL     1     132.665 135.008 147.935  1.00  0.00     0.190 HD
ENDROOT
BRANCH   1   7
ATOM      7  N   UNL     1     133.297 133.666 146.367  1.00  0.00    -0.176 NA
ATOM      8  C   UNL     1     133.219 132.553 145.687  1.00  0.00     0.083 C 
ATOM      9  C   UNL     1     133.360 132.488 144.178  1.00  0.00     0.071 C 
BRANCH   8  10
ATOM     10  C   UNL     1     132.981 131.270 146.429  1.00  0.00     0.086 A 
ATOM     11  C   UNL     1     132.232 130.252 145.846  1.00  0.00     0.030 A 
ATOM     12  N   UNL     1     133.523 131.171 147.668  1.00  0.00    -0.255 NA
ATOM     13  C   UNL     1     132.030 129.077 146.565  1.00  0.00     0.004 A 
ATOM     14  C   UNL     1     133.309 130.019 148.340  1.00  0.00     0.112 A 
ATOM     15  C   UNL     1     132.578 128.956 147.838  1.00  0.00     0.020 A 
ENDBRANCH   8  10
ENDBRANCH   1   7
BRANCH   4  16
ATOM     16  N   UNL     1     132.518 137.032 148.383  1.00  0.00    -0.274 N 
ATOM     17  C   UNL     1     133.201 137.042 149.603  1.00  0.00     0.189 C 
ATOM     18  S   UNL     1     134.349 135.887 150.007  1.00  0.00    -0.039 S 
ATOM     19  N   UNL     1     132.831 138.164 150.331  1.00  0.00    -0.330 N 
ATOM     20  H   UNL     1     131.645 137.549 148.302  1.00  0.00     0.190 HD
ATOM     21  H   UNL     1     132.498 138.931 149.754  1.00  0.00     0.169 HD
BRANCH  19  22
ATOM     22  C   UNL     1     133.057 138.539 151.680  1.00  0.00     0.059 A 
ATOM     23  C   UNL     1     132.158 138.284 152.718  1.00  0.00     0.028 A 
ATOM     24  C   UNL     1     134.222 139.273 151.979  1.00  0.00     0.064 A 
ATOM     25  C   UNL     1     132.434 138.706 154.025  1.00  0.00     0.002 A 
ATOM     26  C   UNL     1     134.499 139.695 153.283  1.00  0.00     0.023 A 
ATOM     27  C   UNL     1     133.604 139.405 154.308  1.00  0.00     0.002 A 
ATOM     28  Cl  UNL     1     135.365 139.674 150.738  1.00  0.00    -0.082 Cl
ENDBRANCH  19  22
ENDBRANCH   4  16
TORSDOF 4
ENDMDL
