MODEL 1
REMARK VINA RESULT:    -4.807      0.000      0.000
REMARK INTER + INTRA:          -8.588
REMARK INTER:                  -7.616
REMARK INTRA:                  -0.972
REMARK UNBOUND:                -0.972
REMARK SMILES CCC(CO[N+](=O)[O-])(CO[N+](=O)[O-])CO[N+](=O)[O-]
REMARK SMILES IDX 3 1 2 2 1 3 4 4 5 5 6 6 7 7 8 8 9 9 10 10 11 11 12 12 13 13
REMARK SMILES IDX 14 14 15 15 16 16 17 17 18 18
REMARK H PARENT
ROOT
ATOM      1  C   UNL     1     131.166 137.822 154.514  1.00  0.00     0.041 C 
ENDROOT
BRANCH   1   2
ATOM      2  C   UNL     1     129.695 138.335 154.445  1.00  0.00     0.009 C 
ATOM      3  C   UNL     1     128.621 137.331 154.847  1.00  0.00     0.005 C 
ENDBRANCH   1   2
BRANCH   1   4
ATOM      4  C   UNL     1     131.254 136.396 153.906  1.00  0.00     0.219 C 
BRANCH   4   5
ATOM      5  O   UNL     1     132.586 135.900 154.027  1.00  0.00    -0.313 OA
BRANCH   5   6
ATOM      6  N   UNL     1     132.967 135.079 152.934  1.00  0.00     0.294 N 
ATOM      7  O   UNL     1     134.185 134.931 152.858  1.00  0.00    -0.109 OA
ATOM      8  O   UNL     1     132.065 134.640 152.221  1.00  0.00    -0.109 OA
ENDBRANCH   5   6
ENDBRANCH   4   5
ENDBRANCH   1   4
BRANCH   1   9
ATOM      9  C   UNL     1     131.601 137.795 156.010  1.00  0.00     0.219 C 
BRANCH   9  10
ATOM     10  O   UNL     1     131.136 138.971 156.670  1.00  0.00    -0.313 OA
BRANCH  10  11
ATOM     11  N   UNL     1     130.424 138.686 157.863  1.00  0.00     0.294 N 
ATOM     12  O   UNL     1     130.853 137.692 158.444  1.00  0.00    -0.109 OA
ATOM     13  O   UNL     1     129.500 139.443 158.159  1.00  0.00    -0.109 OA
ENDBRANCH  10  11
ENDBRANCH   9  10
ENDBRANCH   1   9
BRANCH   1  14
ATOM     14  C   UNL     1     132.139 138.760 153.748  1.00  0.00     0.219 C 
BRANCH  14  15
ATOM     15  O   UNL     1     133.241 139.101 154.586  1.00  0.00    -0.313 OA
BRANCH  15  16
ATOM     16  N   UNL     1     134.476 139.115 153.890  1.00  0.00     0.294 N 
ATOM     17  O   UNL     1     135.251 140.038 154.140  1.00  0.00    -0.109 OA
ATOM     18  O   UNL     1     134.593 138.169 153.114  1.00  0.00    -0.109 OA
ENDBRANCH  15  16
ENDBRANCH  14  15
ENDBRANCH   1  14
TORSDOF 10
ENDMDL
