MODEL 1
REMARK VINA RESULT:    -5.019      0.000      0.000
REMARK INTER + INTRA:          -5.952
REMARK INTER:                  -5.752
REMARK INTRA:                  -0.200
REMARK UNBOUND:                -0.200
REMARK SMILES S=C(S)OC1CC2CC1C1CCCC21
REMARK SMILES IDX 1 1 2 2 3 3 4 5 5 6 6 7 9 8 7 9 8 10 10 11 14 12 11 13 13 14
REMARK SMILES IDX 12 15
REMARK H PARENT 3 4
ROOT
ATOM      1  S   UNL     1     132.038 136.731 153.330  1.00  0.00    -0.032 S 
ATOM      2  C   UNL     1     130.629 135.835 153.313  1.00  0.00     0.217 C 
ENDROOT
BRANCH   2   3
ATOM      3  S   UNL     1     130.621 134.151 152.842  1.00  0.00    -0.094 SA
ATOM      4  H   UNL     1     130.658 133.674 154.094  1.00  0.00     0.112 HD
ENDBRANCH   2   3
BRANCH   2   5
ATOM      5  O   UNL     1     129.519 136.518 153.697  1.00  0.00    -0.475 OA
BRANCH   5   6
ATOM      6  C   UNL     1     129.189 136.715 155.080  1.00  0.00     0.178 C 
ATOM      7  C   UNL     1     129.147 138.229 155.389  1.00  0.00     0.049 C 
ATOM      8  C   UNL     1     127.752 136.263 155.448  1.00  0.00     0.034 C 
ATOM      9  C   UNL     1     127.719 138.430 155.944  1.00  0.00    -0.004 C 
ATOM     10  C   UNL     1     127.515 137.114 156.694  1.00  0.00     0.011 C 
ATOM     11  C   UNL     1     126.741 136.834 154.419  1.00  0.00    -0.001 C 
ATOM     12  C   UNL     1     126.736 138.340 154.752  1.00  0.00    -0.004 C 
ATOM     13  C   UNL     1     125.296 136.351 154.572  1.00  0.00     0.004 C 
ATOM     14  C   UNL     1     125.284 138.711 155.054  1.00  0.00     0.004 C 
ATOM     15  C   UNL     1     124.558 137.413 155.370  1.00  0.00     0.001 C 
ENDBRANCH   5   6
ENDBRANCH   2   5
TORSDOF 3
ENDMDL
