MODEL 1
REMARK VINA RESULT:    -3.622      0.000      0.000
REMARK INTER + INTRA:          -4.948
REMARK INTER:                  -5.528
REMARK INTRA:                   0.580
REMARK UNBOUND:                 0.580
REMARK SMILES O=c1c2c(c1=O)N(CCP(=O)(O)O)CCCN2
REMARK SMILES IDX 7 1 4 2 1 3 2 4 3 5 5 6 6 7 17 8 16 10 15 11 8 13 9 14 10 15
REMARK SMILES IDX 11 16 12 17 13 19 14 21
REMARK H PARENT 17 9 12 18 13 20
REMARK Flexibility Score:   20.900
ROOT
ATOM      1  N   UNL     1     130.538 136.775 154.070  1.00  0.00    -0.366 N 
ENDROOT
BRANCH   1   2
ATOM      2  C   UNL     1     131.642 136.268 153.546  1.00  0.00     0.117 C 
ATOM      3  O   UNL     1     134.330 134.963 152.227  1.00  0.00    -0.283 OA
ATOM      4  C   UNL     1     133.345 135.447 152.726  1.00  0.00     0.253 C 
ATOM      5  C   UNL     1     132.948 136.673 153.453  1.00  0.00     0.114 C 
ATOM      6  C   UNL     1     131.934 134.991 152.846  1.00  0.00     0.253 C 
ATOM      7  O   UNL     1     131.361 133.990 152.494  1.00  0.00    -0.283 OA
BRANCH   5   8
ATOM      8  N   UNL     1     133.635 137.722 153.846  1.00  0.00    -0.380 N 
ATOM      9  H   UNL     1     134.607 137.853 153.565  1.00  0.00     0.160 HD
BRANCH   8  10
ATOM     10  C   UNL     1     132.969 138.928 154.334  1.00  0.00     0.115 C 
BRANCH  10  11
ATOM     11  C   UNL     1     131.795 138.638 155.280  1.00  0.00     0.042 CG0
ATOM     12  G   UNL     1     130.509 138.189 154.565  1.00  0.00     0.000 G0
ENDBRANCH  10  11
ENDBRANCH   8  10
ENDBRANCH   5   8
ENDBRANCH   1   2
BRANCH   1  13
ATOM     13  C   UNL     1     129.229 136.111 153.918  1.00  0.00     0.129 C 
BRANCH  13  14
ATOM     14  C   UNL     1     128.153 136.877 154.663  1.00  0.00     0.150 C 
BRANCH  14  15
ATOM     15  P   UNL     1     127.295 135.881 155.849  1.00  0.00     0.327 P 
ATOM     16  O   UNL     1     127.108 136.427 157.224  1.00  0.00    -0.260 OA
BRANCH  15  17
ATOM     17  O   UNL     1     128.016 134.453 155.868  1.00  0.00    -0.324 OA
ATOM     18  H   UNL     1     127.492 133.752 155.437  1.00  0.00     0.221 HD
ENDBRANCH  15  17
BRANCH  15  19
ATOM     19  O   UNL     1     125.889 135.498 155.181  1.00  0.00    -0.324 OA
ATOM     20  H   UNL     1     125.200 135.309 155.846  1.00  0.00     0.221 HD
ENDBRANCH  15  19
ENDBRANCH  14  15
ENDBRANCH  13  14
ENDBRANCH   1  13
BRANCH   1  21
ATOM     21  C   UNL     1     130.504 138.171 154.548  1.00  0.00     0.118 CG0
ATOM     22  G   UNL     1     131.781 138.623 155.278  1.00  0.00     0.000 G0
ENDBRANCH   1  21
TORSDOF 5
ENDMDL
