MODEL 1
REMARK VINA RESULT:    -4.749      0.000      0.000
REMARK INTER + INTRA:          -8.424
REMARK INTER:                  -7.525
REMARK INTRA:                  -0.899
REMARK UNBOUND:                -0.899
REMARK SMILES COP(=S)(OC)Oc1ccc(Sc2ccc(OP(=S)(OC)OC)cc2)cc1
REMARK SMILES IDX 12 1 11 2 8 3 9 4 27 5 10 6 26 7 7 8 3 9 4 10 2 11 1 12 5 13
REMARK SMILES IDX 6 14 13 15 14 16 25 17 15 18 24 19 16 20 17 21 18 22 19 23
REMARK SMILES IDX 20 24 21 25 22 26 23 27
REMARK H PARENT
ROOT
ATOM      1  S   UNL     1     134.483 139.516 153.398  1.00  0.00    -0.090 SA
ENDROOT
BRANCH   1   2
ATOM      2  C   UNL     1     133.030 138.666 153.987  1.00  0.00     0.012 A 
ATOM      3  C   UNL     1     130.716 137.354 154.881  1.00  0.00     0.129 A 
ATOM      4  C   UNL     1     130.657 138.187 153.767  1.00  0.00     0.048 A 
ATOM      5  C   UNL     1     131.928 137.178 155.549  1.00  0.00     0.048 A 
ATOM      6  C   UNL     1     131.811 138.844 153.326  1.00  0.00     0.019 A 
ATOM      7  C   UNL     1     133.080 137.834 155.108  1.00  0.00     0.019 A 
BRANCH   3   8
ATOM      8  O   UNL     1     129.658 136.652 155.385  1.00  0.00    -0.424 OA
BRANCH   8   9
ATOM      9  P   UNL     1     128.350 137.269 156.106  1.00  0.00     0.380 P 
ATOM     10  S   UNL     1     127.411 138.690 155.177  1.00  0.00     0.006 S 
BRANCH   9  11
ATOM     11  O   UNL     1     128.963 137.672 157.553  1.00  0.00    -0.303 OA
ATOM     12  C   UNL     1     129.222 139.037 157.820  1.00  0.00     0.207 C 
ENDBRANCH   9  11
BRANCH   9  13
ATOM     13  O   UNL     1     127.463 135.962 156.473  1.00  0.00    -0.303 OA
ATOM     14  C   UNL     1     127.298 134.942 155.508  1.00  0.00     0.207 C 
ENDBRANCH   9  13
ENDBRANCH   8   9
ENDBRANCH   3   8
ENDBRANCH   1   2
BRANCH   1  15
ATOM     15  C   UNL     1     134.841 138.612 151.904  1.00  0.00     0.012 A 
ATOM     16  C   UNL     1     134.724 137.219 151.853  1.00  0.00     0.019 A 
ATOM     17  C   UNL     1     135.225 139.306 150.753  1.00  0.00     0.019 A 
ATOM     18  C   UNL     1     135.009 136.523 150.673  1.00  0.00     0.048 A 
ATOM     19  C   UNL     1     135.509 138.611 149.576  1.00  0.00     0.048 A 
ATOM     20  C   UNL     1     135.411 137.220 149.536  1.00  0.00     0.129 A 
BRANCH  20  21
ATOM     21  O   UNL     1     135.706 136.640 148.336  1.00  0.00    -0.424 OA
BRANCH  21  22
ATOM     22  P   UNL     1     134.954 136.912 146.931  1.00  0.00     0.380 P 
ATOM     23  S   UNL     1     133.105 137.495 147.012  1.00  0.00     0.006 S 
BRANCH  22  24
ATOM     24  O   UNL     1     135.969 137.899 146.139  1.00  0.00    -0.303 OA
ATOM     25  C   UNL     1     137.241 137.418 145.751  1.00  0.00     0.207 C 
ENDBRANCH  22  24
BRANCH  22  26
ATOM     26  O   UNL     1     135.206 135.500 146.173  1.00  0.00    -0.303 OA
ATOM     27  C   UNL     1     134.183 134.992 145.337  1.00  0.00     0.207 C 
ENDBRANCH  22  26
ENDBRANCH  21  22
ENDBRANCH  20  21
ENDBRANCH   1  15
TORSDOF 10
ENDMDL
