MODEL 1
REMARK VINA RESULT:    -6.785      0.000      0.000
REMARK INTER + INTRA:          -6.785
REMARK INTER:                  -6.785
REMARK INTRA:                   0.000
REMARK UNBOUND:                 0.000
REMARK SMILES C[n+]1cc2c3c(ccc2c2ccc4cc5c(cc4c21)OCO5)OCO3
REMARK SMILES IDX 1 1 2 2 3 3 4 4 5 5 6 6 7 7 8 8 9 9 10 10 11 11 12 12 13 13
REMARK SMILES IDX 14 14 15 15 16 16 17 17 18 18 19 19 20 20 21 21 22 22 23 23
REMARK SMILES IDX 24 24 25 25
REMARK H PARENT
ROOT
ATOM      1  C   UNL     1     131.362 134.757 152.520  1.00  0.00     0.440 C 
ATOM      2  N   UNL     1     131.979 136.093 152.356  1.00  0.00    -0.200 N 
ATOM      3  C   UNL     1     132.884 136.177 151.355  1.00  0.00     0.321 A 
ATOM      4  C   UNL     1     133.769 137.232 151.238  1.00  0.00     0.092 A 
ATOM      5  C   UNL     1     134.702 137.272 150.205  1.00  0.00     0.179 A 
ATOM      6  C   UNL     1     135.621 138.283 150.089  1.00  0.00     0.166 A 
ATOM      7  C   UNL     1     135.666 139.308 150.995  1.00  0.00     0.051 A 
ATOM      8  C   UNL     1     134.736 139.292 152.044  1.00  0.00     0.014 A 
ATOM      9  C   UNL     1     133.756 138.254 152.197  1.00  0.00     0.006 A 
ATOM     10  C   UNL     1     132.763 138.186 153.226  1.00  0.00     0.055 A 
ATOM     11  C   UNL     1     132.714 139.141 154.255  1.00  0.00     0.016 A 
ATOM     12  C   UNL     1     131.736 139.119 155.242  1.00  0.00     0.010 A 
ATOM     13  C   UNL     1     130.703 138.192 155.204  1.00  0.00    -0.008 A 
ATOM     14  C   UNL     1     129.700 138.293 156.186  1.00  0.00     0.059 A 
ATOM     15  C   UNL     1     128.620 137.451 156.116  1.00  0.00     0.166 A 
ATOM     16  C   UNL     1     128.505 136.546 155.106  1.00  0.00     0.166 A 
ATOM     17  C   UNL     1     129.476 136.414 154.130  1.00  0.00     0.066 A 
ATOM     18  C   UNL     1     130.664 137.203 154.170  1.00  0.00     0.058 A 
ATOM     19  C   UNL     1     131.780 137.132 153.242  1.00  0.00     0.220 A 
ATOM     20  O   UNL     1     127.350 135.833 155.170  1.00  0.00    -0.454 OA
ATOM     21  C   UNL     1     126.749 136.399 156.360  1.00  0.00     0.468 C 
ATOM     22  O   UNL     1     127.561 137.427 156.963  1.00  0.00    -0.454 OA
ATOM     23  O   UNL     1     136.438 138.132 149.016  1.00  0.00    -0.454 OA
ATOM     24  C   UNL     1     135.936 136.906 148.452  1.00  0.00     0.468 C 
ATOM     25  O   UNL     1     134.835 136.346 149.210  1.00  0.00    -0.453 OA
ENDROOT
TORSDOF 0
ENDMDL
