MODEL 1
REMARK VINA RESULT:    -6.096      0.000      0.000
REMARK INTER + INTRA:          -7.628
REMARK INTER:                  -7.165
REMARK INTRA:                  -0.463
REMARK UNBOUND:                -0.463
REMARK SMILES Clc1ccc(C(c2ccc(Cl)cc2)C(Cl)(Cl)Cl)cc1
REMARK SMILES IDX 6 1 5 2 2 3 3 4 19 5 4 6 18 7 1 8 7 9 8 10 13 11 9 12 12 13
REMARK SMILES IDX 10 14 11 15 14 16 15 17 16 18 17 19
REMARK H PARENT
ROOT
ATOM      1  C   UNL     1     130.921 138.233 154.378  1.00  0.00     0.101 C 
ENDROOT
BRANCH   1   2
ATOM      2  C   UNL     1     129.511 137.626 154.484  1.00  0.00    -0.036 A 
ATOM      3  C   UNL     1     126.914 136.567 154.673  1.00  0.00     0.041 A 
ATOM      4  C   UNL     1     127.095 137.945 154.591  1.00  0.00     0.021 A 
ATOM      5  C   UNL     1     128.012 135.713 154.658  1.00  0.00     0.021 A 
ATOM      6  C   UNL     1     128.385 138.472 154.494  1.00  0.00     0.006 A 
ATOM      7  C   UNL     1     129.303 136.239 154.562  1.00  0.00     0.006 A 
ATOM      8  Cl  UNL     1     125.325 135.918 154.789  1.00  0.00    -0.084 Cl
ENDBRANCH   1   2
BRANCH   1   9
ATOM      9  C   UNL     1     131.718 137.567 153.240  1.00  0.00    -0.036 A 
ATOM     10  C   UNL     1     131.777 136.180 153.029  1.00  0.00     0.006 A 
ATOM     11  C   UNL     1     132.400 138.401 152.329  1.00  0.00     0.006 A 
ATOM     12  C   UNL     1     132.507 135.646 151.962  1.00  0.00     0.021 A 
ATOM     13  C   UNL     1     133.129 137.868 151.262  1.00  0.00     0.021 A 
ATOM     14  C   UNL     1     133.181 136.491 151.085  1.00  0.00     0.041 A 
ATOM     15  Cl  UNL     1     134.075 135.828 149.773  1.00  0.00    -0.084 Cl
ENDBRANCH   1   9
BRANCH   1  16
ATOM     16  C   UNL     1     131.624 138.466 155.766  1.00  0.00     0.201 C 
ATOM     17  Cl  UNL     1     132.585 140.009 155.740  1.00  0.00    -0.083 Cl
ATOM     18  Cl  UNL     1     132.822 137.158 156.121  1.00  0.00    -0.083 Cl
ATOM     19  Cl  UNL     1     130.502 138.586 157.166  1.00  0.00    -0.083 Cl
ENDBRANCH   1  16
TORSDOF 3
ENDMDL
