MODEL 1
REMARK VINA RESULT:    -7.169      0.000      0.000
REMARK INTER + INTRA:         -12.272
REMARK INTER:                  -9.893
REMARK INTRA:                  -2.380
REMARK UNBOUND:                -2.380
REMARK SMILES O=C(O)c1ccc(N2C(=O)/C(=C/c3ccc(-c4ccc([N+](=O)[O-])cc4)o3)C=C2c2ccccc2)cc1
REMARK SMILES IDX 8 1 9 2 10 3 11 4 12 5 27 6 28 7 7 8 4 9 5 10 36 11 6 12
REMARK SMILES IDX 35 13 2 14 1 15 3 16 29 18 30 19 34 20 31 21 33 22 32 23
REMARK SMILES IDX 13 24 14 25 26 26 15 27 16 28 17 29 18 30 25 31 19 32 24 33
REMARK SMILES IDX 20 34 21 35 22 36 23 37
REMARK H PARENT 3 17
ROOT
ATOM      1  N   UNL     1     134.237 137.136 149.013  1.00  0.00    -0.276 N 
ATOM      2  C   UNL     1     134.295 136.335 150.183  1.00  0.00     0.263 C 
ATOM      3  O   UNL     1     134.910 135.312 150.429  1.00  0.00    -0.268 OA
ATOM      4  C   UNL     1     133.412 137.052 151.163  1.00  0.00     0.046 C 
ATOM      5  C   UNL     1     133.242 136.578 152.404  1.00  0.00     0.061 C 
ATOM      6  C   UNL     1     132.904 138.218 150.495  1.00  0.00     0.041 C 
ATOM      7  C   UNL     1     133.403 138.233 149.249  1.00  0.00     0.057 C 
ENDROOT
BRANCH   1   8
ATOM      8  C   UNL     1     135.006 136.823 147.847  1.00  0.00     0.049 A 
ATOM      9  C   UNL     1     136.547 136.207 145.544  1.00  0.00     0.060 A 
ATOM     10  C   UNL     1     137.117 136.903 146.611  1.00  0.00     0.018 A 
ATOM     11  C   UNL     1     135.206 135.827 145.620  1.00  0.00     0.018 A 
ATOM     12  C   UNL     1     136.351 137.209 147.745  1.00  0.00     0.027 A 
ATOM     13  C   UNL     1     134.447 136.136 146.758  1.00  0.00     0.027 A 
BRANCH   9  14
ATOM     14  C   UNL     1     137.391 135.903 144.363  1.00  0.00     0.335 C 
ATOM     15  O   UNL     1     137.315 136.441 143.275  1.00  0.00    -0.246 OA
BRANCH  14  16
ATOM     16  O   UNL     1     138.297 134.938 144.604  1.00  0.00    -0.478 OA
ATOM     17  H   UNL     1     138.836 135.304 145.335  1.00  0.00     0.297 HD
ENDBRANCH  14  16
ENDBRANCH   9  14
ENDBRANCH   1   8
BRANCH   7  18
ATOM     18  C   UNL     1     132.970 139.231 148.270  1.00  0.00    -0.001 A 
ATOM     19  C   UNL     1     133.646 140.454 148.158  1.00  0.00     0.010 A 
ATOM     20  C   UNL     1     131.896 138.965 147.407  1.00  0.00     0.010 A 
ATOM     21  C   UNL     1     133.246 141.400 147.213  1.00  0.00     0.001 A 
ATOM     22  C   UNL     1     131.497 139.913 146.463  1.00  0.00     0.001 A 
ATOM     23  C   UNL     1     132.171 141.130 146.367  1.00  0.00     0.000 A 
ENDBRANCH   7  18
BRANCH   5  24
ATOM     24  C   UNL     1     132.421 137.169 153.401  1.00  0.00     0.128 A 
ATOM     25  C   UNL     1     132.717 138.023 154.456  1.00  0.00     0.051 A 
ATOM     26  O   UNL     1     131.056 136.982 153.407  1.00  0.00    -0.457 OA
ATOM     27  C   UNL     1     131.509 138.328 155.128  1.00  0.00     0.051 A 
ATOM     28  C   UNL     1     130.508 137.666 154.451  1.00  0.00     0.134 A 
BRANCH  28  29
ATOM     29  C   UNL     1     129.059 137.558 154.607  1.00  0.00     0.018 A 
ATOM     30  C   UNL     1     128.256 138.702 154.754  1.00  0.00     0.019 A 
ATOM     31  C   UNL     1     128.434 136.300 154.611  1.00  0.00     0.019 A 
ATOM     32  C   UNL     1     126.868 138.599 154.903  1.00  0.00     0.086 A 
ATOM     33  C   UNL     1     127.046 136.183 154.760  1.00  0.00     0.086 A 
ATOM     34  C   UNL     1     126.268 137.336 154.905  1.00  0.00     0.269 A 
BRANCH  34  35
ATOM     35  N   UNL     1     124.812 137.219 155.061  1.00  0.00     0.062 N 
ATOM     36  O   UNL     1     124.201 136.508 154.250  1.00  0.00    -0.258 OA
ATOM     37  O   UNL     1     124.281 137.837 155.995  1.00  0.00    -0.258 OA
ENDBRANCH  34  35
ENDBRANCH  28  29
ENDBRANCH   5  24
TORSDOF 7
ENDMDL
