MODEL 1
REMARK VINA RESULT:    -6.608      0.000      0.000
REMARK INTER + INTRA:          -8.688
REMARK INTER:                  -8.346
REMARK INTRA:                  -0.342
REMARK UNBOUND:                -0.342
REMARK SMILES CC(C)(O)c1coc(S(=O)(=O)NC(=O)Nc2c3c(cc4c2CCC4)CCC3)c1
REMARK SMILES IDX 5 1 6 2 7 3 8 4 28 5 2 6 1 7 3 8 4 9 9 11 10 12 11 13 12 14
REMARK SMILES IDX 13 15 14 16 15 17 16 20 21 21 17 22 20 23 22 24 18 25 27 26
REMARK SMILES IDX 19 27 24 28 23 29 25 30 26 31
REMARK H PARENT 4 10 12 18 15 19
ROOT
ATOM      1  C   UNL     1     130.552 138.371 155.350  1.00  0.00     0.023 A 
ATOM      2  C   UNL     1     131.567 138.733 156.212  1.00  0.00     0.203 A 
ATOM      3  O   UNL     1     132.708 139.019 155.541  1.00  0.00    -0.451 OA
ATOM      4  C   UNL     1     132.463 138.837 154.194  1.00  0.00     0.238 A 
ATOM      5  C   UNL     1     131.144 138.431 154.053  1.00  0.00     0.071 A 
ENDROOT
BRANCH   1   6
ATOM      6  C   UNL     1     129.140 137.970 155.688  1.00  0.00     0.087 C 
ATOM      7  C   UNL     1     128.771 138.430 157.102  1.00  0.00     0.047 C 
ATOM      8  C   UNL     1     128.119 138.513 154.680  1.00  0.00     0.047 C 
BRANCH   6   9
ATOM      9  O   UNL     1     129.014 136.542 155.676  1.00  0.00    -0.386 OA
ATOM     10  H   UNL     1     128.797 136.266 156.583  1.00  0.00     0.211 HD
ENDBRANCH   6   9
ENDBRANCH   1   6
BRANCH   4  11
ATOM     11  S   UNL     1     133.753 139.127 152.973  1.00  0.00     0.298 S 
ATOM     12  O   UNL     1     134.470 137.872 152.942  1.00  0.00    -0.198 OA
ATOM     13  O   UNL     1     134.342 140.379 153.389  1.00  0.00    -0.198 OA
BRANCH  11  14
ATOM     14  N   UNL     1     132.927 139.326 151.538  1.00  0.00    -0.228 N 
ATOM     15  C   UNL     1     133.540 139.109 150.307  1.00  0.00     0.333 C 
ATOM     16  O   UNL     1     134.738 138.930 150.199  1.00  0.00    -0.247 OA
ATOM     17  N   UNL     1     132.626 139.198 149.291  1.00  0.00    -0.307 N 
ATOM     18  H   UNL     1     131.930 139.173 151.622  1.00  0.00     0.185 HD
ATOM     19  H   UNL     1     131.853 139.806 149.507  1.00  0.00     0.171 HD
BRANCH  17  20
ATOM     20  C   UNL     1     132.878 138.969 147.926  1.00  0.00     0.049 A 
ATOM     21  C   UNL     1     132.988 139.963 146.954  1.00  0.00    -0.021 A 
ATOM     22  C   UNL     1     133.113 137.656 147.508  1.00  0.00    -0.021 A 
ATOM     23  C   UNL     1     133.274 139.629 145.606  1.00  0.00    -0.042 A 
ATOM     24  C   UNL     1     133.022 141.462 147.091  1.00  0.00     0.038 C 
ATOM     25  C   UNL     1     133.377 137.340 146.159  1.00  0.00    -0.042 A 
ATOM     26  C   UNL     1     133.047 136.387 148.313  1.00  0.00     0.038 C 
ATOM     27  C   UNL     1     133.455 138.319 145.186  1.00  0.00     0.008 A 
ATOM     28  C   UNL     1     133.434 140.853 144.755  1.00  0.00     0.036 C 
ATOM     29  C   UNL     1     132.803 141.922 145.644  1.00  0.00     0.010 C 
ATOM     30  C   UNL     1     133.504 135.861 145.959  1.00  0.00     0.036 C 
ATOM     31  C   UNL     1     133.759 135.389 147.393  1.00  0.00     0.010 C 
ENDBRANCH  17  20
ENDBRANCH  11  14
ENDBRANCH   4  11
TORSDOF 5
ENDMDL
