MODEL 1
REMARK VINA RESULT:    -5.244      0.000      0.000
REMARK INTER + INTRA:          -5.669
REMARK INTER:                  -5.551
REMARK INTRA:                  -0.118
REMARK UNBOUND:                -0.118
REMARK SMILES N#Cc1cc2[nH]c(=O)c(=O)[nH]c2cc1[N+](=O)[O-]
REMARK SMILES IDX 1 1 2 2 3 3 4 4 5 5 6 6 7 7 8 8 9 9 10 10 11 11 12 12 13 13
REMARK SMILES IDX 14 14 15 17 16 18 17 19
REMARK H PARENT 6 15 11 16
ROOT
ATOM      1  N   UNL     1     134.225 134.967 152.634  1.00  0.00    -0.192 NA
ATOM      2  C   UNL     1     133.371 135.647 153.024  1.00  0.00     0.106 C 
ATOM      3  C   UNL     1     132.279 136.460 153.476  1.00  0.00     0.132 A 
ATOM      4  C   UNL     1     131.012 135.872 153.608  1.00  0.00     0.055 A 
ATOM      5  C   UNL     1     129.919 136.648 154.005  1.00  0.00     0.067 A 
ATOM      6  N   UNL     1     128.662 136.056 154.134  1.00  0.00    -0.316 N 
ATOM      7  C   UNL     1     127.532 136.747 154.518  1.00  0.00     0.314 C 
ATOM      8  O   UNL     1     126.446 136.194 154.620  1.00  0.00    -0.263 OA
ATOM      9  C   UNL     1     127.705 138.259 154.810  1.00  0.00     0.314 C 
ATOM     10  O   UNL     1     126.763 138.958 155.154  1.00  0.00    -0.263 OA
ATOM     11  N   UNL     1     128.974 138.778 154.662  1.00  0.00    -0.316 N 
ATOM     12  C   UNL     1     130.076 138.015 154.271  1.00  0.00     0.072 A 
ATOM     13  C   UNL     1     131.325 138.616 154.147  1.00  0.00     0.115 A 
ATOM     14  C   UNL     1     132.415 137.826 153.754  1.00  0.00     0.289 A 
ATOM     15  H   UNL     1     128.521 135.071 153.949  1.00  0.00     0.170 HD
ATOM     16  H   UNL     1     129.059 139.768 154.857  1.00  0.00     0.170 HD
ENDROOT
BRANCH  14  17
ATOM     17  N   UNL     1     133.710 138.473 153.651  1.00  0.00     0.064 N 
ATOM     18  O   UNL     1     134.331 138.656 154.703  1.00  0.00    -0.258 OA
ATOM     19  O   UNL     1     134.069 138.820 152.521  1.00  0.00    -0.258 OA
ENDBRANCH  14  17
TORSDOF 1
ENDMDL
