MODEL 1
REMARK VINA RESULT:    -5.253      0.000      0.000
REMARK INTER + INTRA:          -5.253
REMARK INTER:                  -5.253
REMARK INTRA:                   0.000
REMARK UNBOUND:                 0.000
REMARK SMILES O=C1NC(=CCl)Nc2sc3c(c21)CCCC3
REMARK SMILES IDX 1 1 2 2 3 3 4 4 5 5 6 6 7 7 8 8 9 9 10 10 11 11 12 12 13 13
REMARK SMILES IDX 14 14 15 15 16 16
REMARK H PARENT 3 17 7 18
ROOT
ATOM      1  O   UNL     1     132.140 139.035 153.715  1.00  0.00    -0.269 OA
ATOM      2  C   UNL     1     132.163 137.855 153.375  1.00  0.00     0.260 C 
ATOM      3  N   UNL     1     133.261 137.321 152.721  1.00  0.00    -0.307 N 
ATOM      4  C   UNL     1     133.361 136.004 152.315  1.00  0.00     0.122 C 
ATOM      5  C   UNL     1     134.476 135.594 151.690  1.00  0.00     0.125 C 
ATOM      6  Cl  UNL     1     135.831 136.588 151.336  1.00  0.00    -0.089 Cl
ATOM      7  N   UNL     1     132.301 135.156 152.573  1.00  0.00    -0.332 N 
ATOM      8  C   UNL     1     131.195 135.611 153.208  1.00  0.00     0.107 A 
ATOM      9  S   UNL     1     129.841 134.659 153.582  1.00  0.00    -0.122 S 
ATOM     10  C   UNL     1     129.052 135.982 154.311  1.00  0.00     0.011 A 
ATOM     11  C   UNL     1     129.800 137.147 154.260  1.00  0.00    -0.019 A 
ATOM     12  C   UNL     1     131.064 136.921 153.621  1.00  0.00     0.078 A 
ATOM     13  C   UNL     1     129.305 138.435 154.849  1.00  0.00     0.037 C 
ATOM     14  C   UNL     1     127.795 138.391 155.138  1.00  0.00     0.005 C 
ATOM     15  C   UNL     1     127.380 137.070 155.802  1.00  0.00     0.006 C 
ATOM     16  C   UNL     1     127.682 135.863 154.902  1.00  0.00     0.047 C 
ATOM     17  H   UNL     1     134.026 137.958 152.546  1.00  0.00     0.171 HD
ATOM     18  H   UNL     1     132.374 134.189 152.279  1.00  0.00     0.169 HD
ENDROOT
TORSDOF 0
ENDMDL
