MODEL 1
REMARK VINA RESULT:    -5.947      0.000      0.000
REMARK INTER + INTRA:          -5.947
REMARK INTER:                  -5.947
REMARK INTRA:                   0.000
REMARK UNBOUND:                 0.000
REMARK SMILES C1=C2CCCN[C@H]2[C@@H]2C[C@H]1[C@H]1CCCCN1C2
REMARK SMILES IDX 1 1 2 2 3 3 4 4 5 5 6 6 7 7 8 8 9 9 10 10 11 11 12 12 13 13
REMARK SMILES IDX 14 14 15 15 16 16 17 17
REMARK H PARENT 6 18
ROOT
ATOM      1  C   UNL     1     132.881 136.541 154.738  1.00  0.00    -0.021 C 
ATOM      2  C   UNL     1     133.155 136.562 153.418  1.00  0.00    -0.057 C 
ATOM      3  C   UNL     1     133.497 135.314 152.647  1.00  0.00     0.033 C 
ATOM      4  C   UNL     1     134.196 135.675 151.341  1.00  0.00     0.020 C 
ATOM      5  C   UNL     1     133.357 136.646 150.502  1.00  0.00     0.082 C 
ATOM      6  N   UNL     1     132.550 137.592 151.275  1.00  0.00    -0.310 NA
ATOM      7  C   UNL     1     133.093 137.848 152.608  1.00  0.00     0.084 C 
ATOM      8  C   UNL     1     132.290 138.941 153.365  1.00  0.00     0.025 C 
ATOM      9  C   UNL     1     132.909 139.047 154.772  1.00  0.00     0.016 C 
ATOM     10  C   UNL     1     132.494 137.781 155.534  1.00  0.00     0.029 C 
ATOM     11  C   UNL     1     130.951 137.825 155.772  1.00  0.00     0.063 C 
ATOM     12  C   UNL     1     130.637 138.348 157.191  1.00  0.00     0.020 C 
ATOM     13  C   UNL     1     129.179 138.793 157.363  1.00  0.00     0.003 C 
ATOM     14  C   UNL     1     128.280 138.202 156.285  1.00  0.00     0.016 C 
ATOM     15  C   UNL     1     128.793 138.532 154.875  1.00  0.00     0.085 C 
ATOM     16  N   UNL     1     130.249 138.710 154.820  1.00  0.00    -0.299 NA
ATOM     17  C   UNL     1     130.772 138.602 153.452  1.00  0.00     0.090 C 
ATOM     18  H   UNL     1     132.450 138.465 150.758  1.00  0.00     0.123 HD
ENDROOT
TORSDOF 0
ENDMDL
