MODEL 1
REMARK VINA RESULT:    -5.147      0.000      0.000
REMARK INTER + INTRA:          -8.120
REMARK INTER:                  -6.651
REMARK INTRA:                  -1.469
REMARK UNBOUND:                -1.469
REMARK SMILES OCCn1cc(-c2ccc3c(c2)CC/C3=N\O)c(-c2ccncc2)n1
REMARK SMILES IDX 4 1 5 2 6 3 18 4 25 5 3 6 2 7 1 8 7 10 8 11 12 12 9 13 11 14
REMARK SMILES IDX 10 15 13 16 15 17 14 18 16 19 17 20 19 22 20 23 24 24 21 25
REMARK SMILES IDX 23 26 22 27
REMARK H PARENT 1 9 17 21
ROOT
ATOM      1  N   UNL     1     136.668 137.346 147.549  1.00  0.00    -0.269 N 
ATOM      2  C   UNL     1     136.448 137.278 148.890  1.00  0.00     0.118 A 
ATOM      3  C   UNL     1     135.251 137.924 149.112  1.00  0.00     0.028 A 
ATOM      4  C   UNL     1     134.808 138.344 147.816  1.00  0.00     0.100 A 
ATOM      5  N   UNL     1     135.705 137.995 146.876  1.00  0.00    -0.172 NA
ENDROOT
BRANCH   1   6
ATOM      6  C   UNL     1     137.803 136.811 146.828  1.00  0.00     0.172 C 
BRANCH   6   7
ATOM      7  C   UNL     1     137.844 137.294 145.387  1.00  0.00     0.179 C 
BRANCH   7   8
ATOM      8  O   UNL     1     137.832 138.719 145.341  1.00  0.00    -0.394 OA
ATOM      9  H   UNL     1     137.495 139.036 146.198  1.00  0.00     0.210 HD
ENDBRANCH   7   8
ENDBRANCH   6   7
ENDBRANCH   1   6
BRANCH   3  10
ATOM     10  C   UNL     1     134.695 138.117 150.439  1.00  0.00    -0.014 A 
ATOM     11  C   UNL     1     134.715 139.399 151.029  1.00  0.00     0.009 A 
ATOM     12  C   UNL     1     134.139 137.030 151.136  1.00  0.00     0.013 A 
ATOM     13  C   UNL     1     134.180 139.608 152.302  1.00  0.00     0.011 A 
ATOM     14  C   UNL     1     133.609 137.244 152.401  1.00  0.00    -0.038 A 
ATOM     15  C   UNL     1     133.638 138.518 152.956  1.00  0.00     0.003 A 
ATOM     16  C   UNL     1     132.972 136.237 153.304  1.00  0.00     0.043 C 
ATOM     17  C   UNL     1     133.023 138.455 154.272  1.00  0.00     0.087 C 
ATOM     18  C   UNL     1     132.582 137.038 154.556  1.00  0.00     0.065 C 
ATOM     19  N   UNL     1     132.894 139.484 155.047  1.00  0.00    -0.093 NA
BRANCH  19  20
ATOM     20  O   UNL     1     132.266 139.121 156.243  1.00  0.00    -0.411 OA
ATOM     21  H   UNL     1     131.680 139.883 156.410  1.00  0.00     0.330 HD
ENDBRANCH  19  20
ENDBRANCH   3  10
BRANCH   4  22
ATOM     22  C   UNL     1     133.586 139.055 147.438  1.00  0.00     0.006 A 
ATOM     23  C   UNL     1     133.658 140.368 146.964  1.00  0.00     0.030 A 
ATOM     24  C   UNL     1     132.333 138.444 147.523  1.00  0.00     0.030 A 
ATOM     25  C   UNL     1     132.484 141.014 146.618  1.00  0.00     0.111 A 
ATOM     26  C   UNL     1     131.216 139.174 147.155  1.00  0.00     0.111 A 
ATOM     27  N   UNL     1     131.262 140.448 146.710  1.00  0.00    -0.265 NA
ENDBRANCH   4  22
TORSDOF 6
ENDMDL
