MODEL 1
REMARK VINA RESULT:    -5.426      0.000      0.000
REMARK INTER + INTRA:          -8.422
REMARK INTER:                  -7.329
REMARK INTRA:                  -1.093
REMARK UNBOUND:                -1.093
REMARK SMILES CSc1nc(NC2CCCC2)c([N+](=O)[O-])c(NC2CCCC2)n1
REMARK SMILES IDX 3 1 4 2 5 3 12 4 16 5 23 6 2 7 1 8 6 9 7 11 8 12 11 13 9 14
REMARK SMILES IDX 10 15 17 16 18 18 19 19 22 20 20 21 21 22 13 23 14 24 15 25
REMARK H PARENT 6 10 17 17
ROOT
ATOM      1  C   UNL     1     130.480 135.783 153.793  1.00  0.00     0.191 A 
ATOM      2  N   UNL     1     131.460 136.639 154.121  1.00  0.00    -0.198 NA
ATOM      3  C   UNL     1     131.194 137.596 155.030  1.00  0.00     0.212 A 
ATOM      4  C   UNL     1     129.917 137.708 155.555  1.00  0.00     0.353 A 
ATOM      5  C   UNL     1     128.952 136.797 155.168  1.00  0.00     0.212 A 
ATOM      6  N   UNL     1     129.236 135.817 154.295  1.00  0.00    -0.198 NA
ENDROOT
BRANCH   1   7
ATOM      7  S   UNL     1     130.903 134.532 152.606  1.00  0.00    -0.090 SA
ATOM      8  C   UNL     1     132.651 134.912 152.333  1.00  0.00     0.094 C 
ENDBRANCH   1   7
BRANCH   3   9
ATOM      9  N   UNL     1     132.219 138.497 155.383  1.00  0.00    -0.361 N 
ATOM     10  H   UNL     1     132.970 137.988 155.856  1.00  0.00     0.162 HD
BRANCH   9  11
ATOM     11  C   UNL     1     132.750 139.341 154.307  1.00  0.00     0.081 C 
ATOM     12  C   UNL     1     134.202 138.973 153.947  1.00  0.00     0.025 C 
ATOM     13  C   UNL     1     131.944 139.099 153.020  1.00  0.00     0.025 C 
ATOM     14  C   UNL     1     134.170 138.469 152.509  1.00  0.00     0.002 C 
ATOM     15  C   UNL     1     132.969 139.171 151.903  1.00  0.00     0.002 C 
ENDBRANCH   9  11
ENDBRANCH   3   9
BRANCH   5  16
ATOM     16  N   UNL     1     127.638 136.762 155.651  1.00  0.00    -0.361 N 
ATOM     17  H   UNL     1     127.584 135.872 156.152  1.00  0.00     0.162 HD
BRANCH  16  18
ATOM     18  C   UNL     1     126.617 136.752 154.583  1.00  0.00     0.081 C 
ATOM     19  C   UNL     1     125.372 135.969 155.009  1.00  0.00     0.025 C 
ATOM     20  C   UNL     1     126.066 138.163 154.396  1.00  0.00     0.025 C 
ATOM     21  C   UNL     1     124.559 136.937 155.869  1.00  0.00     0.002 C 
ATOM     22  C   UNL     1     125.055 138.339 155.524  1.00  0.00     0.002 C 
ENDBRANCH  16  18
ENDBRANCH   5  16
BRANCH   4  23
ATOM     23  N   UNL     1     129.653 138.681 156.567  1.00  0.00     0.070 N 
ATOM     24  O   UNL     1     128.495 139.124 156.629  1.00  0.00    -0.258 OA
ATOM     25  O   UNL     1     130.575 138.980 157.339  1.00  0.00    -0.258 OA
ENDBRANCH   4  23
TORSDOF 6
ENDMDL
