MODEL 1
REMARK VINA RESULT:    -6.412      0.000      0.000
REMARK INTER + INTRA:          -9.901
REMARK INTER:                  -9.036
REMARK INTRA:                  -0.865
REMARK UNBOUND:                -0.865
REMARK SMILES CCc1cnc(N2CCC(c3nc(COc4ccc(-n5cnnn5)cc4)cs3)CC2)nc1
REMARK SMILES IDX 11 1 12 2 13 3 27 4 28 5 10 6 7 7 8 8 30 9 9 10 29 11 6 12
REMARK SMILES IDX 3 13 4 14 32 15 5 16 31 17 2 18 1 19 14 20 15 21 16 22 17 23
REMARK SMILES IDX 26 24 18 25 25 26 19 27 20 28 21 29 24 30 22 31 23 32
REMARK H PARENT
ROOT
ATOM      1  C   UNL     1     133.511 138.329 152.424  1.00  0.00     0.096 A 
ATOM      2  N   UNL     1     133.025 137.896 151.276  1.00  0.00    -0.242 NA
ATOM      3  C   UNL     1     133.375 138.748 150.236  1.00  0.00     0.089 A 
ATOM      4  C   UNL     1     134.134 139.833 150.625  1.00  0.00     0.094 A 
ATOM      5  S   UNL     1     134.414 139.786 152.309  1.00  0.00    -0.127 S 
ENDROOT
BRANCH   1   6
ATOM      6  C   UNL     1     133.281 137.588 153.725  1.00  0.00     0.052 C 
ATOM      7  N   UNL     1     130.582 136.967 154.585  1.00  0.00    -0.341 N 
ATOM      8  C   UNL     1     131.147 136.184 153.487  1.00  0.00     0.120 C 
ATOM      9  C   UNL     1     131.035 138.351 154.703  1.00  0.00     0.120 C 
ATOM     10  C   UNL     1     132.673 136.195 153.551  1.00  0.00     0.032 C 
ATOM     11  C   UNL     1     132.558 138.411 154.793  1.00  0.00     0.032 C 
BRANCH   7  12
ATOM     12  C   UNL     1     129.188 136.829 154.701  1.00  0.00     0.225 A 
ATOM     13  C   UNL     1     126.461 136.544 154.882  1.00  0.00    -0.011 A 
ATOM     14  C   UNL     1     127.340 135.526 155.167  1.00  0.00     0.120 A 
ATOM     15  C   UNL     1     127.066 137.713 154.488  1.00  0.00     0.120 A 
ATOM     16  N   UNL     1     128.680 135.646 155.088  1.00  0.00    -0.221 NA
ATOM     17  N   UNL     1     128.400 137.875 154.396  1.00  0.00    -0.221 NA
BRANCH  13  18
ATOM     18  C   UNL     1     124.978 136.382 154.956  1.00  0.00     0.035 C 
ATOM     19  C   UNL     1     124.327 137.467 155.801  1.00  0.00     0.009 C 
ENDBRANCH  13  18
ENDBRANCH   7  12
ENDBRANCH   1   6
BRANCH   3  20
ATOM     20  C   UNL     1     132.906 138.411 148.851  1.00  0.00     0.286 C 
BRANCH  20  21
ATOM     21  O   UNL     1     132.138 139.471 148.271  1.00  0.00    -0.487 OA
BRANCH  21  22
ATOM     22  C   UNL     1     132.168 139.591 146.910  1.00  0.00     0.120 A 
ATOM     23  C   UNL     1     132.548 138.602 146.002  1.00  0.00     0.048 A 
ATOM     24  C   UNL     1     131.774 140.842 146.428  1.00  0.00     0.048 A 
ATOM     25  C   UNL     1     132.534 138.860 144.624  1.00  0.00     0.032 A 
ATOM     26  C   UNL     1     131.756 141.108 145.056  1.00  0.00     0.032 A 
ATOM     27  C   UNL     1     132.138 140.115 144.145  1.00  0.00     0.068 A 
BRANCH  27  28
ATOM     28  N   UNL     1     132.116 140.396 142.758  1.00  0.00    -0.201 N 
ATOM     29  C   UNL     1     131.175 140.066 141.814  1.00  0.00     0.252 A 
ATOM     30  N   UNL     1     133.102 141.083 142.136  1.00  0.00    -0.040 NA
ATOM     31  N   UNL     1     131.553 140.526 140.643  1.00  0.00    -0.117 NA
ATOM     32  N   UNL     1     132.750 141.154 140.860  1.00  0.00    -0.024 NA
ENDBRANCH  27  28
ENDBRANCH  21  22
ENDBRANCH  20  21
ENDBRANCH   3  20
TORSDOF 7
ENDMDL
